 Entering Gaussian System, Link 0=g16
 Initial command:
 /home/chesagar/softwares/G16_AVX2//g16/l1.exe "/home/chesagar/scratch/Gau-27914.inp" -scrdir="/home/chesagar/scratch/"
 Entering Link 1 = /home/chesagar/softwares/G16_AVX2//g16/l1.exe PID=     27915.
  
 Copyright (c) 1988-2019, Gaussian, Inc.  All Rights Reserved.
  
 This is part of the Gaussian(R) 16 program.  It is based on
 the Gaussian(R) 09 system (copyright 2009, Gaussian, Inc.),
 the Gaussian(R) 03 system (copyright 2003, Gaussian, Inc.),
 the Gaussian(R) 98 system (copyright 1998, Gaussian, Inc.),
 the Gaussian(R) 94 system (copyright 1995, Gaussian, Inc.),
 the Gaussian 92(TM) system (copyright 1992, Gaussian, Inc.),
 the Gaussian 90(TM) system (copyright 1990, Gaussian, Inc.),
 the Gaussian 88(TM) system (copyright 1988, Gaussian, Inc.),
 the Gaussian 86(TM) system (copyright 1986, Carnegie Mellon
 University), and the Gaussian 82(TM) system (copyright 1983,
 Carnegie Mellon University). Gaussian is a federally registered
 trademark of Gaussian, Inc.
  
 This software contains proprietary and confidential information,
 including trade secrets, belonging to Gaussian, Inc.
  
 This software is provided under written license and may be
 used, copied, transmitted, or stored only in accord with that
 written license.
  
 The following legend is applicable only to US Government
 contracts under FAR:
  
                    RESTRICTED RIGHTS LEGEND
  
 Use, reproduction and disclosure by the US Government is
 subject to restrictions as set forth in subparagraphs (a)
 and (c) of the Commercial Computer Software - Restricted
 Rights clause in FAR 52.227-19.
  
 Gaussian, Inc.
 340 Quinnipiac St., Bldg. 40, Wallingford CT 06492
  
  
 ---------------------------------------------------------------
 Warning -- This program may not be used in any manner that
 competes with the business of Gaussian, Inc. or will provide
 assistance to any competitor of Gaussian, Inc.  The licensee
 of this program is prohibited from giving any competitor of
 Gaussian, Inc. access to this program.  By using this program,
 the user acknowledges that Gaussian, Inc. is engaged in the
 business of creating and licensing software in the field of
 computational chemistry and represents and warrants to the
 licensee that it is not a competitor of Gaussian, Inc. and that
 it will not use this program in any manner prohibited above.
 ---------------------------------------------------------------
  

 Cite this work as:
 Gaussian 16, Revision C.01,
 M. J. Frisch, G. W. Trucks, H. B. Schlegel, G. E. Scuseria, 
 M. A. Robb, J. R. Cheeseman, G. Scalmani, V. Barone, 
 G. A. Petersson, H. Nakatsuji, X. Li, M. Caricato, A. V. Marenich, 
 J. Bloino, B. G. Janesko, R. Gomperts, B. Mennucci, H. P. Hratchian, 
 J. V. Ortiz, A. F. Izmaylov, J. L. Sonnenberg, D. Williams-Young, 
 F. Ding, F. Lipparini, F. Egidi, J. Goings, B. Peng, A. Petrone, 
 T. Henderson, D. Ranasinghe, V. G. Zakrzewski, J. Gao, N. Rega, 
 G. Zheng, W. Liang, M. Hada, M. Ehara, K. Toyota, R. Fukuda, 
 J. Hasegawa, M. Ishida, T. Nakajima, Y. Honda, O. Kitao, H. Nakai, 
 T. Vreven, K. Throssell, J. A. Montgomery, Jr., J. E. Peralta, 
 F. Ogliaro, M. J. Bearpark, J. J. Heyd, E. N. Brothers, K. N. Kudin, 
 V. N. Staroverov, T. A. Keith, R. Kobayashi, J. Normand, 
 K. Raghavachari, A. P. Rendell, J. C. Burant, S. S. Iyengar, 
 J. Tomasi, M. Cossi, J. M. Millam, M. Klene, C. Adamo, R. Cammi, 
 J. W. Ochterski, R. L. Martin, K. Morokuma, O. Farkas, 
 J. B. Foresman, and D. J. Fox, Gaussian, Inc., Wallingford CT, 2019.
 
 ******************************************
 Gaussian 16:  ES64L-G16RevC.01  3-Jul-2019
                14-Feb-2023 
 ******************************************
 %nprocshared=46
 Will use up to   46 processors via shared memory.
 %chk=i3_1_22_ts_min2.chk
 %mem=100GB
 ----------------------------------------------------------------------
 # opt freq b3lyp/gen nosymm pseudo=read scf=maxcycles=500 geom=check g
 uess=read
 ----------------------------------------------------------------------
 1/18=20,19=15,26=3,29=2,38=1/1,3;
 2/9=110,12=2,15=1,40=1/2;
 3/5=7,11=2,14=-4,16=1,17=8,25=1,30=1,71=1,74=-5,116=-2/1,2,3;
 4/5=1/1;
 5/5=2,7=500,38=6/2;
 6/7=2,8=2,9=2,10=2,28=1/1;
 7/30=1/1,2,3,16;
 1/18=20,19=15,26=3/3(2);
 2/9=110,15=1/2;
 99//99;
 2/9=110,15=1/2;
 3/5=7,6=1,11=2,14=-2,16=1,17=8,25=1,30=1,71=1,74=-5,82=7/1,2,3;
 4/5=5,16=3,69=1/1;
 5/5=2,7=500,38=5/2;
 7/30=1/1,2,3,16;
 1/18=20,19=15,26=3/3(-5);
 2/9=110,15=1/2;
 6/7=2,8=2,9=2,10=2,19=2,28=1/1;
 99/9=1/99;
 -------------------
 Title Card Required
 -------------------
 Structure from the checkpoint file:  "i3_1_22_ts_min2.chk"
 Charge =  0 Multiplicity = 1
 Redundant internal coordinates found in file.  (old form).
 Mo,0,0.2525829207,1.4318051886,12.7348347873
 S,0,2.3130859858,2.2144779831,13.7930268686
 S,0,-0.7633258383,2.2575418691,14.9242958772
 S,0,-0.495686681,1.1012403674,10.4550540292
 S,0,1.7532751708,-0.4102013085,12.1251070167
 Mo,0,-2.0365962295,2.8321730008,11.120674957
 S,0,-2.8768939129,2.4729548819,8.846404377
 S,0,-0.0542733187,3.75718912,12.1418092004
 Mo,0,0.9779328317,3.0194613015,10.0526240404
 S,0,0.1987870516,2.7018112782,7.7426963611
 S,0,2.5388089807,1.2221017373,9.4673554983
 Mo,0,3.3049442132,1.3954923763,11.7477727776
 Mo,0,-1.4553344332,4.359794485,8.3368613824
 S,0,5.4982905287,1.8811193255,13.0421697838
 S,0,3.0092424536,3.8046304208,11.1800321424
 S,0,-2.3608823911,5.1580793736,10.4476347747
 S,0,0.8112211628,7.0249184641,6.5261100779
 Mo,0,-4.3467761328,4.2387649811,9.5214903495
 S,0,-5.8635858955,2.2731244353,9.8380315378
 S,0,-5.4276823933,4.9818634449,11.4115157128
 Mo,0,2.4147757663,-0.1049070455,14.4076161228
 S,0,4.2919007019,-1.5778859669,14.6294870392
 S,0,1.6138937875,0.7288544624,16.443849149
 Mo,0,1.5227610582,4.6873858495,7.2514076217
 S,0,0.8614823078,4.2946871193,4.8725254796
 S,0,0.5863751447,5.3606395728,9.345379884
 Mo,0,4.1250756545,3.048770944,9.211357503
 S,0,3.2197527387,2.8507004193,6.8629828776
 S,0,5.4731661187,5.3272834873,8.6839368287
 Mo,0,4.6787158109,4.5747618589,6.6384630262
 S,0,6.6155493079,3.6355106765,5.9746382691
 S,0,3.4195378044,6.5822962558,6.996742611
 Mo,0,2.3340677718,6.1592528941,4.7918789063
 S,0,4.4137742538,5.3036661601,4.3273123499
 S,0,-1.4192373789,6.8677411662,3.7718146845
 Mo,0,-1.0284625389,5.8227939359,5.5600211595
 S,0,-2.3362411215,3.7923731266,5.892210472
 S,0,-2.1271566323,6.7375397954,7.5395357413
 Mo,0,-3.8063660287,5.5271543242,6.4363388623
 S,0,-5.6081198948,4.7559590824,7.6283689985
 S,0,-4.6102345827,6.5363176116,4.768893418
 Mo,0,-5.1883657247,2.5684816719,11.9741640784
 S,0,-3.2562328468,3.5451369625,13.1978897741
 S,0,-3.5298776544,0.8519134024,11.6592799886
 Mo,0,-2.6856611971,1.2411268184,13.941807451
 S,0,-1.2778459645,-0.5408829608,13.2419555259
 S,0,-4.1914028279,0.6571379982,15.3034904838
 Mo,0,-0.4701872236,-0.0919008074,15.4806046552
 S,0,0.9922054521,-1.9178750889,14.8141979089
 S,0,-1.4913421941,-0.9176009622,17.1413537109
 Mo,0,5.5497286891,-0.4350875931,13.1508015091
 S,0,4.8659111156,-0.6174687643,10.9487640747
 S,0,8.44190662,0.8784893835,10.8224052647
 Mo,0,6.3926671801,1.3688264469,10.7347860975
 S,0,5.7221924958,1.2969271136,8.4058688132
 S,0,6.1891832668,3.6969041752,10.7299133417
 Mo,0,6.9313393117,3.3562377805,8.4998783467
 S,0,9.0452927109,3.6013067814,8.4260785092
 S,0,2.0327093533,7.6217562294,3.2807358732
 S,0,7.5316512645,-1.1267586536,13.4220762125
 S,0,-6.8794049491,2.0203676108,13.1277338241
 Recover connectivity data from disk.

 GradGradGradGradGradGradGradGradGradGradGradGradGradGradGradGradGradGrad
 Berny optimization.
 Initialization pass.
                           ----------------------------
                           !    Initial Parameters    !
                           ! (Angstroms and Degrees)  !
 --------------------------                            --------------------------
 ! Name  Definition              Value          Derivative Info.                !
 --------------------------------------------------------------------------------
 ! R1    R(1,2)                  2.445          estimate D2E/DX2                !
 ! R2    R(1,3)                  2.551          estimate D2E/DX2                !
 ! R3    R(1,4)                  2.4221         estimate D2E/DX2                !
 ! R4    R(1,5)                  2.4529         estimate D2E/DX2                !
 ! R5    R(1,8)                  2.4193         estimate D2E/DX2                !
 ! R6    R(1,46)                 2.5477         estimate D2E/DX2                !
 ! R7    R(2,12)                 2.4161         estimate D2E/DX2                !
 ! R8    R(2,21)                 2.4016         estimate D2E/DX2                !
 ! R9    R(3,45)                 2.3862         estimate D2E/DX2                !
 ! R10   R(3,48)                 2.4321         estimate D2E/DX2                !
 ! R11   R(4,6)                  2.4111         estimate D2E/DX2                !
 ! R12   R(4,9)                  2.4522         estimate D2E/DX2                !
 ! R13   R(5,12)                 2.4105         estimate D2E/DX2                !
 ! R14   R(5,21)                 2.396          estimate D2E/DX2                !
 ! R15   R(6,7)                  2.451          estimate D2E/DX2                !
 ! R16   R(6,8)                  2.4141         estimate D2E/DX2                !
 ! R17   R(6,16)                 2.4429         estimate D2E/DX2                !
 ! R18   R(6,43)                 2.5121         estimate D2E/DX2                !
 ! R19   R(6,44)                 2.538          estimate D2E/DX2                !
 ! R20   R(7,13)                 2.4167         estimate D2E/DX2                !
 ! R21   R(7,18)                 2.3947         estimate D2E/DX2                !
 ! R22   R(8,9)                  2.4443         estimate D2E/DX2                !
 ! R23   R(9,10)                 2.4584         estimate D2E/DX2                !
 ! R24   R(9,11)                 2.4514         estimate D2E/DX2                !
 ! R25   R(9,15)                 2.4523         estimate D2E/DX2                !
 ! R26   R(9,26)                 2.4768         estimate D2E/DX2                !
 ! R27   R(10,13)                2.4162         estimate D2E/DX2                !
 ! R28   R(10,24)                2.4366         estimate D2E/DX2                !
 ! R29   R(11,12)                2.4119         estimate D2E/DX2                !
 ! R30   R(11,27)                2.4328         estimate D2E/DX2                !
 ! R31   R(12,14)                2.5927         estimate D2E/DX2                !
 ! R32   R(12,15)                2.4927         estimate D2E/DX2                !
 ! R33   R(12,21)                3.1809         estimate D2E/DX2                !
 ! R34   R(12,52)                2.6697         estimate D2E/DX2                !
 ! R35   R(13,16)                2.4316         estimate D2E/DX2                !
 ! R36   R(13,18)                3.127          estimate D2E/DX2                !
 ! R37   R(13,26)                2.4874         estimate D2E/DX2                !
 ! R38   R(13,37)                2.6598         estimate D2E/DX2                !
 ! R39   R(13,38)                2.5963         estimate D2E/DX2                !
 ! R40   R(14,51)                2.3193         estimate D2E/DX2                !
 ! R41   R(14,54)                2.5271         estimate D2E/DX2                !
 ! R42   R(15,27)                2.3858         estimate D2E/DX2                !
 ! R43   R(16,18)                2.3763         estimate D2E/DX2                !
 ! R44   R(17,24)                2.5488         estimate D2E/DX2                !
 ! R45   R(17,33)                2.465          estimate D2E/DX2                !
 ! R46   R(17,36)                2.4006         estimate D2E/DX2                !
 ! R47   R(18,19)                2.5029         estimate D2E/DX2                !
 ! R48   R(18,20)                2.3006         estimate D2E/DX2                !
 ! R49   R(18,40)                2.3329         estimate D2E/DX2                !
 ! R50   R(18,42)                3.0844         estimate D2E/DX2                !
 ! R51   R(19,42)                2.2597         estimate D2E/DX2                !
 ! R52   R(20,42)                2.4896         estimate D2E/DX2                !
 ! R53   R(21,22)                2.3963         estimate D2E/DX2                !
 ! R54   R(21,23)                2.3415         estimate D2E/DX2                !
 ! R55   R(21,48)                3.0781         estimate D2E/DX2                !
 ! R56   R(21,49)                2.3401         estimate D2E/DX2                !
 ! R57   R(21,51)                3.3936         estimate D2E/DX2                !
 ! R58   R(22,51)                2.2527         estimate D2E/DX2                !
 ! R59   R(23,48)                2.4382         estimate D2E/DX2                !
 ! R60   R(24,25)                2.5001         estimate D2E/DX2                !
 ! R61   R(24,26)                2.3906         estimate D2E/DX2                !
 ! R62   R(24,28)                2.5306         estimate D2E/DX2                !
 ! R63   R(24,32)                2.6932         estimate D2E/DX2                !
 ! R64   R(24,33)                2.9789         estimate D2E/DX2                !
 ! R65   R(25,33)                2.3773         estimate D2E/DX2                !
 ! R66   R(25,36)                2.5258         estimate D2E/DX2                !
 ! R67   R(27,28)                2.5246         estimate D2E/DX2                !
 ! R68   R(27,29)                2.6995         estimate D2E/DX2                !
 ! R69   R(27,30)                3.0422         estimate D2E/DX2                !
 ! R70   R(27,55)                2.5037         estimate D2E/DX2                !
 ! R71   R(27,56)                2.6432         estimate D2E/DX2                !
 ! R72   R(27,57)                2.9113         estimate D2E/DX2                !
 ! R73   R(28,30)                2.2697         estimate D2E/DX2                !
 ! R74   R(29,30)                2.3198         estimate D2E/DX2                !
 ! R75   R(29,57)                2.4587         estimate D2E/DX2                !
 ! R76   R(30,31)                2.2526         estimate D2E/DX2                !
 ! R77   R(30,32)                2.3967         estimate D2E/DX2                !
 ! R78   R(30,34)                2.4378         estimate D2E/DX2                !
 ! R79   R(31,57)                2.5602         estimate D2E/DX2                !
 ! R80   R(32,33)                2.4937         estimate D2E/DX2                !
 ! R81   R(33,34)                2.2963         estimate D2E/DX2                !
 ! R82   R(33,59)                2.1244         estimate D2E/DX2                !
 ! R83   R(35,36)                2.1077         estimate D2E/DX2                !
 ! R84   R(36,37)                2.4379         estimate D2E/DX2                !
 ! R85   R(36,38)                2.4418         estimate D2E/DX2                !
 ! R86   R(36,39)                2.9278         estimate D2E/DX2                !
 ! R87   R(37,39)                2.3381         estimate D2E/DX2                !
 ! R88   R(38,39)                2.3456         estimate D2E/DX2                !
 ! R89   R(39,40)                2.2939         estimate D2E/DX2                !
 ! R90   R(39,41)                2.1083         estimate D2E/DX2                !
 ! R91   R(42,43)                2.4869         estimate D2E/DX2                !
 ! R92   R(42,44)                2.4076         estimate D2E/DX2                !
 ! R93   R(42,61)                2.1191         estimate D2E/DX2                !
 ! R94   R(43,45)                2.4875         estimate D2E/DX2                !
 ! R95   R(44,45)                2.4646         estimate D2E/DX2                !
 ! R96   R(45,46)                2.3764         estimate D2E/DX2                !
 ! R97   R(45,47)                2.1125         estimate D2E/DX2                !
 ! R98   R(46,48)                2.4219         estimate D2E/DX2                !
 ! R99   R(48,49)                2.4325         estimate D2E/DX2                !
 ! R100  R(48,50)                2.1172         estimate D2E/DX2                !
 ! R101  R(51,52)                2.313          estimate D2E/DX2                !
 ! R102  R(51,54)                3.1308         estimate D2E/DX2                !
 ! R103  R(51,60)                2.1166         estimate D2E/DX2                !
 ! R104  R(52,54)                2.5144         estimate D2E/DX2                !
 ! R105  R(53,54)                2.1089         estimate D2E/DX2                !
 ! R106  R(54,55)                2.4246         estimate D2E/DX2                !
 ! R107  R(54,56)                2.337          estimate D2E/DX2                !
 ! R108  R(54,57)                3.0389         estimate D2E/DX2                !
 ! R109  R(55,57)                2.3899         estimate D2E/DX2                !
 ! R110  R(56,57)                2.3748         estimate D2E/DX2                !
 ! R111  R(57,58)                2.1294         estimate D2E/DX2                !
 ! A1    A(2,1,3)               81.9832         estimate D2E/DX2                !
 ! A2    A(2,1,4)              135.3495         estimate D2E/DX2                !
 ! A3    A(2,1,5)               80.3505         estimate D2E/DX2                !
 ! A4    A(2,1,8)               84.5657         estimate D2E/DX2                !
 ! A5    A(2,1,46)             131.9092         estimate D2E/DX2                !
 ! A6    A(3,1,4)              136.8016         estimate D2E/DX2                !
 ! A7    A(3,1,5)              134.4315         estimate D2E/DX2                !
 ! A8    A(3,1,8)               81.3006         estimate D2E/DX2                !
 ! A9    A(3,1,46)              80.8262         estimate D2E/DX2                !
 ! A10   A(4,1,5)               81.5209         estimate D2E/DX2                !
 ! A11   A(4,1,8)               82.0262         estimate D2E/DX2                !
 ! A12   A(4,1,46)              84.0362         estimate D2E/DX2                !
 ! A13   A(5,1,8)              137.5991         estimate D2E/DX2                !
 ! A14   A(5,1,46)              80.5339         estimate D2E/DX2                !
 ! A15   A(8,1,46)             135.7928         estimate D2E/DX2                !
 ! A16   A(1,2,12)              82.5932         estimate D2E/DX2                !
 ! A17   A(1,2,21)              80.6356         estimate D2E/DX2                !
 ! A18   A(1,3,45)              80.1865         estimate D2E/DX2                !
 ! A19   A(1,3,48)              80.5395         estimate D2E/DX2                !
 ! A20   A(45,3,48)             77.2791         estimate D2E/DX2                !
 ! A21   A(1,4,6)               80.7709         estimate D2E/DX2                !
 ! A22   A(1,4,9)               82.071          estimate D2E/DX2                !
 ! A23   A(6,4,9)               82.4023         estimate D2E/DX2                !
 ! A24   A(1,5,12)              82.5423         estimate D2E/DX2                !
 ! A25   A(1,5,21)              80.5855         estimate D2E/DX2                !
 ! A26   A(4,6,7)               81.8209         estimate D2E/DX2                !
 ! A27   A(4,6,8)               82.3611         estimate D2E/DX2                !
 ! A28   A(4,6,16)             133.8105         estimate D2E/DX2                !
 ! A29   A(4,6,43)             137.9271         estimate D2E/DX2                !
 ! A30   A(4,6,44)              82.7886         estimate D2E/DX2                !
 ! A31   A(7,6,8)              136.8995         estimate D2E/DX2                !
 ! A32   A(7,6,16)              80.6997         estimate D2E/DX2                !
 ! A33   A(7,6,43)             129.9713         estimate D2E/DX2                !
 ! A34   A(7,6,44)              83.1567         estimate D2E/DX2                !
 ! A35   A(8,6,16)              81.994          estimate D2E/DX2                !
 ! A36   A(8,6,43)              86.5693         estimate D2E/DX2                !
 ! A37   A(8,6,44)             133.8152         estimate D2E/DX2                !
 ! A38   A(16,6,43)             83.8661         estimate D2E/DX2                !
 ! A39   A(16,6,44)            136.3217         estimate D2E/DX2                !
 ! A40   A(43,6,44)             76.1316         estimate D2E/DX2                !
 ! A41   A(6,7,13)              83.0819         estimate D2E/DX2                !
 ! A42   A(6,7,18)              80.8385         estimate D2E/DX2                !
 ! A43   A(1,8,6)               80.7665         estimate D2E/DX2                !
 ! A44   A(1,8,9)               82.2905         estimate D2E/DX2                !
 ! A45   A(6,8,9)               82.506          estimate D2E/DX2                !
 ! A46   A(4,9,8)               80.9121         estimate D2E/DX2                !
 ! A47   A(4,9,10)              82.1064         estimate D2E/DX2                !
 ! A48   A(4,9,11)              81.273          estimate D2E/DX2                !
 ! A49   A(4,9,15)             132.2832         estimate D2E/DX2                !
 ! A50   A(4,9,26)             133.7313         estimate D2E/DX2                !
 ! A51   A(8,9,10)             135.0943         estimate D2E/DX2                !
 ! A52   A(8,9,11)             133.9674         estimate D2E/DX2                !
 ! A53   A(8,9,15)              81.9646         estimate D2E/DX2                !
 ! A54   A(8,9,26)              83.8007         estimate D2E/DX2                !
 ! A55   A(10,9,11)             83.2656         estimate D2E/DX2                !
 ! A56   A(10,9,15)            137.3803         estimate D2E/DX2                !
 ! A57   A(10,9,26)             78.6811         estimate D2E/DX2                !
 ! A58   A(11,9,15)             79.4609         estimate D2E/DX2                !
 ! A59   A(11,9,26)            136.513          estimate D2E/DX2                !
 ! A60   A(15,9,26)             87.6836         estimate D2E/DX2                !
 ! A61   A(9,10,13)             84.1025         estimate D2E/DX2                !
 ! A62   A(9,10,24)             84.9483         estimate D2E/DX2                !
 ! A63   A(13,10,24)            82.0905         estimate D2E/DX2                !
 ! A64   A(9,11,12)             85.6306         estimate D2E/DX2                !
 ! A65   A(9,11,27)             83.6714         estimate D2E/DX2                !
 ! A66   A(12,11,27)            80.7            estimate D2E/DX2                !
 ! A67   A(2,12,5)              81.7875         estimate D2E/DX2                !
 ! A68   A(2,12,11)            133.9734         estimate D2E/DX2                !
 ! A69   A(2,12,14)             82.0204         estimate D2E/DX2                !
 ! A70   A(2,12,15)             79.4263         estimate D2E/DX2                !
 ! A71   A(2,12,52)            138.5017         estimate D2E/DX2                !
 ! A72   A(5,12,11)             83.6662         estimate D2E/DX2                !
 ! A73   A(5,12,14)            127.3525         estimate D2E/DX2                !
 ! A74   A(5,12,15)            133.099          estimate D2E/DX2                !
 ! A75   A(5,12,52)             81.8599         estimate D2E/DX2                !
 ! A76   A(11,12,14)           138.9567         estimate D2E/DX2                !
 ! A77   A(11,12,15)            79.4238         estimate D2E/DX2                !
 ! A78   A(11,12,21)           131.897          estimate D2E/DX2                !
 ! A79   A(11,12,52)            81.289          estimate D2E/DX2                !
 ! A80   A(14,12,15)            91.8932         estimate D2E/DX2                !
 ! A81   A(14,12,21)            84.6999         estimate D2E/DX2                !
 ! A82   A(14,12,52)            78.2294         estimate D2E/DX2                !
 ! A83   A(15,12,21)           127.8152         estimate D2E/DX2                !
 ! A84   A(15,12,52)           136.8801         estimate D2E/DX2                !
 ! A85   A(21,12,52)            93.3384         estimate D2E/DX2                !
 ! A86   A(7,13,10)             85.3424         estimate D2E/DX2                !
 ! A87   A(7,13,16)             81.6185         estimate D2E/DX2                !
 ! A88   A(7,13,26)            135.3541         estimate D2E/DX2                !
 ! A89   A(7,13,37)             80.3524         estimate D2E/DX2                !
 ! A90   A(7,13,38)            128.8702         estimate D2E/DX2                !
 ! A91   A(10,13,16)           133.9228         estimate D2E/DX2                !
 ! A92   A(10,13,18)           134.396          estimate D2E/DX2                !
 ! A93   A(10,13,26)            79.2735         estimate D2E/DX2                !
 ! A94   A(10,13,37)            81.6237         estimate D2E/DX2                !
 ! A95   A(10,13,38)           136.8913         estimate D2E/DX2                !
 ! A96   A(16,13,26)            79.7253         estimate D2E/DX2                !
 ! A97   A(16,13,37)           138.121          estimate D2E/DX2                !
 ! A98   A(16,13,38)            82.5047         estimate D2E/DX2                !
 ! A99   A(18,13,26)           128.3848         estimate D2E/DX2                !
 ! A100  A(18,13,37)            91.9309         estimate D2E/DX2                !
 ! A101  A(18,13,38)            84.9814         estimate D2E/DX2                !
 ! A102  A(26,13,37)           136.9151         estimate D2E/DX2                !
 ! A103  A(26,13,38)            88.1901         estimate D2E/DX2                !
 ! A104  A(37,13,38)            80.0616         estimate D2E/DX2                !
 ! A105  A(12,14,51)            81.668          estimate D2E/DX2                !
 ! A106  A(12,14,54)            78.7898         estimate D2E/DX2                !
 ! A107  A(9,15,12)             83.8881         estimate D2E/DX2                !
 ! A108  A(9,15,27)             84.6416         estimate D2E/DX2                !
 ! A109  A(12,15,27)            79.995          estimate D2E/DX2                !
 ! A110  A(6,16,13)             82.9434         estimate D2E/DX2                !
 ! A111  A(6,16,18)             81.3716         estimate D2E/DX2                !
 ! A112  A(24,17,36)            82.4844         estimate D2E/DX2                !
 ! A113  A(33,17,36)            90.8279         estimate D2E/DX2                !
 ! A114  A(7,18,16)             83.2334         estimate D2E/DX2                !
 ! A115  A(7,18,19)             80.1268         estimate D2E/DX2                !
 ! A116  A(7,18,20)            139.3038         estimate D2E/DX2                !
 ! A117  A(7,18,40)            105.4612         estimate D2E/DX2                !
 ! A118  A(7,18,42)             89.5609         estimate D2E/DX2                !
 ! A119  A(13,18,19)           129.692          estimate D2E/DX2                !
 ! A120  A(13,18,20)           137.1521         estimate D2E/DX2                !
 ! A121  A(13,18,40)           100.5994         estimate D2E/DX2                !
 ! A122  A(13,18,42)           125.064          estimate D2E/DX2                !
 ! A123  A(16,18,19)           139.5517         estimate D2E/DX2                !
 ! A124  A(16,18,20)            86.9906         estimate D2E/DX2                !
 ! A125  A(16,18,40)           133.0286         estimate D2E/DX2                !
 ! A126  A(16,18,42)            97.3314         estimate D2E/DX2                !
 ! A127  A(19,18,20)            82.2436         estimate D2E/DX2                !
 ! A128  A(19,18,40)            87.081          estimate D2E/DX2                !
 ! A129  A(20,18,40)           109.9397         estimate D2E/DX2                !
 ! A130  A(40,18,42)           128.1563         estimate D2E/DX2                !
 ! A131  A(2,21,5)              82.3903         estimate D2E/DX2                !
 ! A132  A(2,21,22)            130.5793         estimate D2E/DX2                !
 ! A133  A(2,21,23)             82.1936         estimate D2E/DX2                !
 ! A134  A(2,21,48)             92.6045         estimate D2E/DX2                !
 ! A135  A(2,21,49)            140.0816         estimate D2E/DX2                !
 ! A136  A(2,21,51)             92.1952         estimate D2E/DX2                !
 ! A137  A(5,21,22)            103.0705         estimate D2E/DX2                !
 ! A138  A(5,21,23)            141.2033         estimate D2E/DX2                !
 ! A139  A(5,21,48)             94.2354         estimate D2E/DX2                !
 ! A140  A(5,21,49)             84.201          estimate D2E/DX2                !
 ! A141  A(5,21,51)             83.6754         estimate D2E/DX2                !
 ! A142  A(12,21,22)            98.5193         estimate D2E/DX2                !
 ! A143  A(12,21,23)           130.9132         estimate D2E/DX2                !
 ! A144  A(12,21,48)           123.4893         estimate D2E/DX2                !
 ! A145  A(12,21,49)           132.91           estimate D2E/DX2                !
 ! A146  A(12,21,51)            58.5132         estimate D2E/DX2                !
 ! A147  A(22,21,23)           113.9712         estimate D2E/DX2                !
 ! A148  A(22,21,48)           134.7897         estimate D2E/DX2                !
 ! A149  A(22,21,49)            89.077          estimate D2E/DX2                !
 ! A150  A(23,21,49)            85.2302         estimate D2E/DX2                !
 ! A151  A(23,21,51)           132.2733         estimate D2E/DX2                !
 ! A152  A(49,21,51)           123.4051         estimate D2E/DX2                !
 ! A153  A(10,24,17)           130.7718         estimate D2E/DX2                !
 ! A154  A(10,24,25)            85.419          estimate D2E/DX2                !
 ! A155  A(10,24,26)            80.7957         estimate D2E/DX2                !
 ! A156  A(10,24,28)            78.6899         estimate D2E/DX2                !
 ! A157  A(10,24,33)           135.8166         estimate D2E/DX2                !
 ! A158  A(17,24,25)            78.4308         estimate D2E/DX2                !
 ! A159  A(17,24,26)            83.2016         estimate D2E/DX2                !
 ! A160  A(17,24,28)           144.0128         estimate D2E/DX2                !
 ! A161  A(17,24,32)            61.6038         estimate D2E/DX2                !
 ! A162  A(25,24,26)           140.7224         estimate D2E/DX2                !
 ! A163  A(25,24,28)            85.2574         estimate D2E/DX2                !
 ! A164  A(25,24,32)           101.9363         estimate D2E/DX2                !
 ! A165  A(26,24,28)           126.9785         estimate D2E/DX2                !
 ! A166  A(26,24,32)            99.2384         estimate D2E/DX2                !
 ! A167  A(26,24,33)           133.6886         estimate D2E/DX2                !
 ! A168  A(28,24,32)            91.3672         estimate D2E/DX2                !
 ! A169  A(28,24,33)            92.8227         estimate D2E/DX2                !
 ! A170  A(24,25,36)            81.0191         estimate D2E/DX2                !
 ! A171  A(33,25,36)            89.8978         estimate D2E/DX2                !
 ! A172  A(9,26,13)             82.2535         estimate D2E/DX2                !
 ! A173  A(9,26,24)             85.5257         estimate D2E/DX2                !
 ! A174  A(13,26,24)            81.55           estimate D2E/DX2                !
 ! A175  A(11,27,15)            81.1468         estimate D2E/DX2                !
 ! A176  A(11,27,28)            78.7643         estimate D2E/DX2                !
 ! A177  A(11,27,30)           125.7529         estimate D2E/DX2                !
 ! A178  A(11,27,55)            85.6652         estimate D2E/DX2                !
 ! A179  A(11,27,56)           129.2597         estimate D2E/DX2                !
 ! A180  A(11,27,57)           137.182          estimate D2E/DX2                !
 ! A181  A(15,27,28)           128.6599         estimate D2E/DX2                !
 ! A182  A(15,27,29)            97.3177         estimate D2E/DX2                !
 ! A183  A(15,27,30)           128.6136         estimate D2E/DX2                !
 ! A184  A(15,27,55)           141.7658         estimate D2E/DX2                !
 ! A185  A(15,27,56)            79.2502         estimate D2E/DX2                !
 ! A186  A(15,27,57)           128.2441         estimate D2E/DX2                !
 ! A187  A(28,27,29)            93.6443         estimate D2E/DX2                !
 ! A188  A(28,27,55)            82.7959         estimate D2E/DX2                !
 ! A189  A(28,27,56)           146.4777         estimate D2E/DX2                !
 ! A190  A(28,27,57)            97.2743         estimate D2E/DX2                !
 ! A191  A(29,27,55)           102.0737         estimate D2E/DX2                !
 ! A192  A(29,27,56)            61.0073         estimate D2E/DX2                !
 ! A193  A(30,27,55)            87.8679         estimate D2E/DX2                !
 ! A194  A(30,27,56)           102.7543         estimate D2E/DX2                !
 ! A195  A(30,27,57)            64.2098         estimate D2E/DX2                !
 ! A196  A(55,27,56)            81.8515         estimate D2E/DX2                !
 ! A197  A(24,28,27)            92.3356         estimate D2E/DX2                !
 ! A198  A(24,28,30)            83.9687         estimate D2E/DX2                !
 ! A199  A(30,29,57)            82.9373         estimate D2E/DX2                !
 ! A200  A(27,30,31)           101.3357         estimate D2E/DX2                !
 ! A201  A(27,30,32)           101.4271         estimate D2E/DX2                !
 ! A202  A(27,30,34)           158.7484         estimate D2E/DX2                !
 ! A203  A(28,30,29)           112.2921         estimate D2E/DX2                !
 ! A204  A(28,30,31)           105.3744         estimate D2E/DX2                !
 ! A205  A(28,30,32)           106.485          estimate D2E/DX2                !
 ! A206  A(28,30,34)           104.5394         estimate D2E/DX2                !
 ! A207  A(29,30,31)            95.7763         estimate D2E/DX2                !
 ! A208  A(29,30,32)            77.079          estimate D2E/DX2                !
 ! A209  A(29,30,34)           140.9108         estimate D2E/DX2                !
 ! A210  A(31,30,32)           147.6776         estimate D2E/DX2                !
 ! A211  A(31,30,34)            86.4876         estimate D2E/DX2                !
 ! A212  A(32,30,34)            80.4547         estimate D2E/DX2                !
 ! A213  A(30,31,57)            82.0024         estimate D2E/DX2                !
 ! A214  A(24,32,30)            78.1591         estimate D2E/DX2                !
 ! A215  A(30,32,33)            87.3874         estimate D2E/DX2                !
 ! A216  A(17,33,25)            82.4663         estimate D2E/DX2                !
 ! A217  A(17,33,32)            65.6241         estimate D2E/DX2                !
 ! A218  A(17,33,34)           146.3783         estimate D2E/DX2                !
 ! A219  A(17,33,59)            99.8486         estimate D2E/DX2                !
 ! A220  A(24,33,34)           103.2736         estimate D2E/DX2                !
 ! A221  A(24,33,59)           152.723          estimate D2E/DX2                !
 ! A222  A(25,33,32)           111.8815         estimate D2E/DX2                !
 ! A223  A(25,33,34)           106.0            estimate D2E/DX2                !
 ! A224  A(25,33,59)           118.4373         estimate D2E/DX2                !
 ! A225  A(32,33,34)            81.2491         estimate D2E/DX2                !
 ! A226  A(32,33,59)           125.0211         estimate D2E/DX2                !
 ! A227  A(34,33,59)           103.9494         estimate D2E/DX2                !
 ! A228  A(30,34,33)            91.0334         estimate D2E/DX2                !
 ! A229  A(17,36,25)            80.7395         estimate D2E/DX2                !
 ! A230  A(17,36,35)           103.6066         estimate D2E/DX2                !
 ! A231  A(17,36,37)           140.6537         estimate D2E/DX2                !
 ! A232  A(17,36,38)            80.269          estimate D2E/DX2                !
 ! A233  A(17,36,39)           131.0881         estimate D2E/DX2                !
 ! A234  A(25,36,35)           101.9903         estimate D2E/DX2                !
 ! A235  A(25,36,37)            86.2503         estimate D2E/DX2                !
 ! A236  A(25,36,38)           141.6268         estimate D2E/DX2                !
 ! A237  A(25,36,39)           136.9135         estimate D2E/DX2                !
 ! A238  A(35,36,37)           115.4084         estimate D2E/DX2                !
 ! A239  A(35,36,38)           114.7492         estimate D2E/DX2                !
 ! A240  A(35,36,39)            97.3593         estimate D2E/DX2                !
 ! A241  A(37,36,38)            87.7173         estimate D2E/DX2                !
 ! A242  A(13,37,36)            76.6966         estimate D2E/DX2                !
 ! A243  A(13,37,39)            80.5643         estimate D2E/DX2                !
 ! A244  A(13,38,36)            77.8451         estimate D2E/DX2                !
 ! A245  A(13,38,39)            81.7842         estimate D2E/DX2                !
 ! A246  A(36,39,40)           159.183          estimate D2E/DX2                !
 ! A247  A(36,39,41)            94.3995         estimate D2E/DX2                !
 ! A248  A(37,39,38)            92.4181         estimate D2E/DX2                !
 ! A249  A(37,39,40)           111.4296         estimate D2E/DX2                !
 ! A250  A(37,39,41)           114.2567         estimate D2E/DX2                !
 ! A251  A(38,39,40)           119.4315         estimate D2E/DX2                !
 ! A252  A(38,39,41)           113.4494         estimate D2E/DX2                !
 ! A253  A(40,39,41)           105.8088         estimate D2E/DX2                !
 ! A254  A(18,40,39)            94.1029         estimate D2E/DX2                !
 ! A255  A(18,42,43)            88.0878         estimate D2E/DX2                !
 ! A256  A(18,42,44)            95.4018         estimate D2E/DX2                !
 ! A257  A(18,42,61)           142.2467         estimate D2E/DX2                !
 ! A258  A(19,42,20)            83.3584         estimate D2E/DX2                !
 ! A259  A(19,42,43)           138.4741         estimate D2E/DX2                !
 ! A260  A(19,42,44)            89.3703         estimate D2E/DX2                !
 ! A261  A(19,42,61)           104.0246         estimate D2E/DX2                !
 ! A262  A(20,42,43)            78.7665         estimate D2E/DX2                !
 ! A263  A(20,42,44)           136.7035         estimate D2E/DX2                !
 ! A264  A(20,42,61)           107.2801         estimate D2E/DX2                !
 ! A265  A(43,42,44)            78.9984         estimate D2E/DX2                !
 ! A266  A(43,42,61)           116.9809         estimate D2E/DX2                !
 ! A267  A(44,42,61)           115.8799         estimate D2E/DX2                !
 ! A268  A(6,43,42)             81.886          estimate D2E/DX2                !
 ! A269  A(6,43,45)             82.7065         estimate D2E/DX2                !
 ! A270  A(42,43,45)            87.8001         estimate D2E/DX2                !
 ! A271  A(6,44,42)             82.9207         estimate D2E/DX2                !
 ! A272  A(6,44,45)             82.6333         estimate D2E/DX2                !
 ! A273  A(42,44,45)            90.1282         estimate D2E/DX2                !
 ! A274  A(3,45,43)             85.031          estimate D2E/DX2                !
 ! A275  A(3,45,44)            136.4321         estimate D2E/DX2                !
 ! A276  A(3,45,46)             87.9036         estimate D2E/DX2                !
 ! A277  A(3,45,47)            115.2511         estimate D2E/DX2                !
 ! A278  A(43,45,44)            77.9203         estimate D2E/DX2                !
 ! A279  A(43,45,46)           137.9352         estimate D2E/DX2                !
 ! A280  A(43,45,47)           106.5792         estimate D2E/DX2                !
 ! A281  A(44,45,46)            79.1497         estimate D2E/DX2                !
 ! A282  A(44,45,47)           108.0089         estimate D2E/DX2                !
 ! A283  A(46,45,47)           113.8785         estimate D2E/DX2                !
 ! A284  A(1,46,45)             80.4365         estimate D2E/DX2                !
 ! A285  A(1,46,48)             80.8001         estimate D2E/DX2                !
 ! A286  A(45,46,48)            77.6621         estimate D2E/DX2                !
 ! A287  A(3,48,21)             92.1384         estimate D2E/DX2                !
 ! A288  A(3,48,23)             82.4269         estimate D2E/DX2                !
 ! A289  A(3,48,46)             85.8402         estimate D2E/DX2                !
 ! A290  A(3,48,49)            137.3023         estimate D2E/DX2                !
 ! A291  A(3,48,50)            119.869          estimate D2E/DX2                !
 ! A292  A(21,48,46)            89.4019         estimate D2E/DX2                !
 ! A293  A(21,48,50)           136.3724         estimate D2E/DX2                !
 ! A294  A(23,48,46)           135.4493         estimate D2E/DX2                !
 ! A295  A(23,48,49)            81.2018         estimate D2E/DX2                !
 ! A296  A(23,48,50)           103.5121         estimate D2E/DX2                !
 ! A297  A(46,48,49)            78.9357         estimate D2E/DX2                !
 ! A298  A(46,48,50)           119.4666         estimate D2E/DX2                !
 ! A299  A(49,48,50)           102.2458         estimate D2E/DX2                !
 ! A300  A(14,51,21)            84.2432         estimate D2E/DX2                !
 ! A301  A(14,51,22)           121.6671         estimate D2E/DX2                !
 ! A302  A(14,51,52)            91.5814         estimate D2E/DX2                !
 ! A303  A(14,51,60)           110.6779         estimate D2E/DX2                !
 ! A304  A(21,51,52)            94.9994         estimate D2E/DX2                !
 ! A305  A(21,51,54)           118.5848         estimate D2E/DX2                !
 ! A306  A(21,51,60)           148.1389         estimate D2E/DX2                !
 ! A307  A(22,51,52)           114.8248         estimate D2E/DX2                !
 ! A308  A(22,51,54)           161.6562         estimate D2E/DX2                !
 ! A309  A(22,51,60)           105.8387         estimate D2E/DX2                !
 ! A310  A(52,51,60)           111.9059         estimate D2E/DX2                !
 ! A311  A(54,51,60)            92.0105         estimate D2E/DX2                !
 ! A312  A(12,52,51)            80.1233         estimate D2E/DX2                !
 ! A313  A(12,52,54)            77.5761         estimate D2E/DX2                !
 ! A314  A(14,54,52)            82.3884         estimate D2E/DX2                !
 ! A315  A(14,54,53)           110.6768         estimate D2E/DX2                !
 ! A316  A(14,54,55)           141.7361         estimate D2E/DX2                !
 ! A317  A(14,54,56)            76.6523         estimate D2E/DX2                !
 ! A318  A(14,54,57)           126.9879         estimate D2E/DX2                !
 ! A319  A(51,54,53)            95.4856         estimate D2E/DX2                !
 ! A320  A(51,54,55)           130.5198         estimate D2E/DX2                !
 ! A321  A(51,54,56)           123.5155         estimate D2E/DX2                !
 ! A322  A(52,54,53)           113.7545         estimate D2E/DX2                !
 ! A323  A(52,54,55)            83.708          estimate D2E/DX2                !
 ! A324  A(52,54,56)           137.2461         estimate D2E/DX2                !
 ! A325  A(52,54,57)           133.3819         estimate D2E/DX2                !
 ! A326  A(53,54,55)           107.5611         estimate D2E/DX2                !
 ! A327  A(53,54,56)           108.4405         estimate D2E/DX2                !
 ! A328  A(53,54,57)            90.5941         estimate D2E/DX2                !
 ! A329  A(55,54,56)            90.1983         estimate D2E/DX2                !
 ! A330  A(27,55,54)            81.1775         estimate D2E/DX2                !
 ! A331  A(27,56,54)            79.9166         estimate D2E/DX2                !
 ! A332  A(27,57,31)            97.6818         estimate D2E/DX2                !
 ! A333  A(27,57,54)            65.1869         estimate D2E/DX2                !
 ! A334  A(29,57,31)            85.0226         estimate D2E/DX2                !
 ! A335  A(29,57,54)           111.3523         estimate D2E/DX2                !
 ! A336  A(29,57,55)           113.1824         estimate D2E/DX2                !
 ! A337  A(29,57,56)            68.2455         estimate D2E/DX2                !
 ! A338  A(29,57,58)           119.9405         estimate D2E/DX2                !
 ! A339  A(31,57,54)           140.7937         estimate D2E/DX2                !
 ! A340  A(31,57,55)            89.5868         estimate D2E/DX2                !
 ! A341  A(31,57,56)           150.6931         estimate D2E/DX2                !
 ! A342  A(31,57,58)            94.3422         estimate D2E/DX2                !
 ! A343  A(54,57,58)           106.0652         estimate D2E/DX2                !
 ! A344  A(55,57,56)            90.1394         estimate D2E/DX2                !
 ! A345  A(55,57,58)           126.8754         estimate D2E/DX2                !
 ! A346  A(56,57,58)           109.0429         estimate D2E/DX2                !
 ! A347  L(48,21,51,2,-1)      184.7997         estimate D2E/DX2                !
 ! A348  L(10,24,32,17,-1)     192.3756         estimate D2E/DX2                !
 ! A349  L(11,27,29,15,-1)     178.4646         estimate D2E/DX2                !
 ! A350  L(51,54,57,53,-1)     186.0797         estimate D2E/DX2                !
 ! A351  L(27,57,58,31,-1)     192.0241         estimate D2E/DX2                !
 ! A352  L(48,21,51,2,-2)      182.7527         estimate D2E/DX2                !
 ! A353  L(10,24,32,17,-2)     175.982          estimate D2E/DX2                !
 ! A354  L(11,27,29,15,-2)     191.507          estimate D2E/DX2                !
 ! A355  L(51,54,57,53,-2)     183.8876         estimate D2E/DX2                !
 ! A356  L(27,57,58,31,-2)     178.1532         estimate D2E/DX2                !
 ! D1    D(3,1,2,12)           178.8302         estimate D2E/DX2                !
 ! D2    D(3,1,2,21)            95.117          estimate D2E/DX2                !
 ! D3    D(4,1,2,12)           -26.3519         estimate D2E/DX2                !
 ! D4    D(4,1,2,21)          -110.0652         estimate D2E/DX2                !
 ! D5    D(5,1,2,12)            41.0086         estimate D2E/DX2                !
 ! D6    D(5,1,2,21)           -42.7046         estimate D2E/DX2                !
 ! D7    D(8,1,2,12)           -99.2197         estimate D2E/DX2                !
 ! D8    D(8,1,2,21)           177.0671         estimate D2E/DX2                !
 ! D9    D(46,1,2,12)          108.8749         estimate D2E/DX2                !
 ! D10   D(46,1,2,21)           25.1616         estimate D2E/DX2                !
 ! D11   D(2,1,3,45)          -173.6314         estimate D2E/DX2                !
 ! D12   D(2,1,3,48)           -95.0357         estimate D2E/DX2                !
 ! D13   D(4,1,3,45)            32.2712         estimate D2E/DX2                !
 ! D14   D(4,1,3,48)           110.867          estimate D2E/DX2                !
 ! D15   D(5,1,3,45)          -105.6634         estimate D2E/DX2                !
 ! D16   D(5,1,3,48)           -27.0676         estimate D2E/DX2                !
 ! D17   D(8,1,3,45)           100.6813         estimate D2E/DX2                !
 ! D18   D(8,1,3,48)           179.2771         estimate D2E/DX2                !
 ! D19   D(46,1,3,45)          -38.7187         estimate D2E/DX2                !
 ! D20   D(46,1,3,48)           39.8771         estimate D2E/DX2                !
 ! D21   D(2,1,4,6)           -115.9359         estimate D2E/DX2                !
 ! D22   D(2,1,4,9)            -32.4019         estimate D2E/DX2                !
 ! D23   D(3,1,4,6)             26.0745         estimate D2E/DX2                !
 ! D24   D(3,1,4,9)            109.6085         estimate D2E/DX2                !
 ! D25   D(5,1,4,6)            177.1464         estimate D2E/DX2                !
 ! D26   D(5,1,4,9)            -99.3196         estimate D2E/DX2                !
 ! D27   D(8,1,4,6)            -42.0688         estimate D2E/DX2                !
 ! D28   D(8,1,4,9)             41.4652         estimate D2E/DX2                !
 ! D29   D(46,1,4,6)            95.8668         estimate D2E/DX2                !
 ! D30   D(46,1,4,9)           179.4008         estimate D2E/DX2                !
 ! D31   D(2,1,5,12)           -41.1301         estimate D2E/DX2                !
 ! D32   D(2,1,5,21)            42.8365         estimate D2E/DX2                !
 ! D33   D(3,1,5,12)          -109.7353         estimate D2E/DX2                !
 ! D34   D(3,1,5,21)           -25.7687         estimate D2E/DX2                !
 ! D35   D(4,1,5,12)            97.8899         estimate D2E/DX2                !
 ! D36   D(4,1,5,21)          -178.1435         estimate D2E/DX2                !
 ! D37   D(8,1,5,12)            29.6827         estimate D2E/DX2                !
 ! D38   D(8,1,5,21)           113.6493         estimate D2E/DX2                !
 ! D39   D(46,1,5,12)         -176.793          estimate D2E/DX2                !
 ! D40   D(46,1,5,21)          -92.8264         estimate D2E/DX2                !
 ! D41   D(2,1,8,6)            179.3062         estimate D2E/DX2                !
 ! D42   D(2,1,8,9)             95.6983         estimate D2E/DX2                !
 ! D43   D(3,1,8,6)            -97.9998         estimate D2E/DX2                !
 ! D44   D(3,1,8,9)            178.3923         estimate D2E/DX2                !
 ! D45   D(4,1,8,6)             42.0056         estimate D2E/DX2                !
 ! D46   D(4,1,8,9)            -41.6023         estimate D2E/DX2                !
 ! D47   D(5,1,8,6)            110.031          estimate D2E/DX2                !
 ! D48   D(5,1,8,9)             26.4231         estimate D2E/DX2                !
 ! D49   D(46,1,8,6)           -30.8685         estimate D2E/DX2                !
 ! D50   D(46,1,8,9)          -114.4763         estimate D2E/DX2                !
 ! D51   D(2,1,46,45)          109.3141         estimate D2E/DX2                !
 ! D52   D(2,1,46,48)           30.3967         estimate D2E/DX2                !
 ! D53   D(3,1,46,45)           38.8731         estimate D2E/DX2                !
 ! D54   D(3,1,46,48)          -40.0444         estimate D2E/DX2                !
 ! D55   D(4,1,46,45)         -100.5314         estimate D2E/DX2                !
 ! D56   D(4,1,46,48)         -179.4488         estimate D2E/DX2                !
 ! D57   D(5,1,46,45)          177.1046         estimate D2E/DX2                !
 ! D58   D(5,1,46,48)           98.1872         estimate D2E/DX2                !
 ! D59   D(8,1,46,45)          -28.4359         estimate D2E/DX2                !
 ! D60   D(8,1,46,48)         -107.3534         estimate D2E/DX2                !
 ! D61   D(1,2,12,5)           -41.6892         estimate D2E/DX2                !
 ! D62   D(1,2,12,11)           31.2056         estimate D2E/DX2                !
 ! D63   D(1,2,12,14)         -171.4235         estimate D2E/DX2                !
 ! D64   D(1,2,12,15)           95.1308         estimate D2E/DX2                !
 ! D65   D(1,2,12,52)         -109.4143         estimate D2E/DX2                !
 ! D66   D(1,2,21,5)            43.6777         estimate D2E/DX2                !
 ! D67   D(1,2,21,22)          144.3959         estimate D2E/DX2                !
 ! D68   D(1,2,21,23)         -100.6111         estimate D2E/DX2                !
 ! D69   D(1,2,21,48)          -50.2507         estimate D2E/DX2                !
 ! D70   D(1,2,21,49)          -27.748          estimate D2E/DX2                !
 ! D71   D(1,2,21,51)          126.9966         estimate D2E/DX2                !
 ! D72   D(1,3,45,43)          -97.0051         estimate D2E/DX2                !
 ! D73   D(1,3,45,44)          -30.3451         estimate D2E/DX2                !
 ! D74   D(1,3,45,46)           41.4874         estimate D2E/DX2                !
 ! D75   D(1,3,45,47)          156.993          estimate D2E/DX2                !
 ! D76   D(48,3,45,43)        -179.4223         estimate D2E/DX2                !
 ! D77   D(48,3,45,44)        -112.7623         estimate D2E/DX2                !
 ! D78   D(48,3,45,46)         -40.9297         estimate D2E/DX2                !
 ! D79   D(48,3,45,47)          74.5758         estimate D2E/DX2                !
 ! D80   D(1,3,48,21)           47.3628         estimate D2E/DX2                !
 ! D81   D(1,3,48,23)           95.0442         estimate D2E/DX2                !
 ! D82   D(1,3,48,46)          -41.8815         estimate D2E/DX2                !
 ! D83   D(1,3,48,49)           26.8603         estimate D2E/DX2                !
 ! D84   D(1,3,48,50)         -163.6843         estimate D2E/DX2                !
 ! D85   D(45,3,48,21)         129.3426         estimate D2E/DX2                !
 ! D86   D(45,3,48,23)         177.024          estimate D2E/DX2                !
 ! D87   D(45,3,48,46)          40.0983         estimate D2E/DX2                !
 ! D88   D(45,3,48,49)         108.8401         estimate D2E/DX2                !
 ! D89   D(45,3,48,50)         -81.7045         estimate D2E/DX2                !
 ! D90   D(1,4,6,7)           -178.0832         estimate D2E/DX2                !
 ! D91   D(1,4,6,8)             42.1394         estimate D2E/DX2                !
 ! D92   D(1,4,6,16)           113.2711         estimate D2E/DX2                !
 ! D93   D(1,4,6,43)           -34.0521         estimate D2E/DX2                !
 ! D94   D(1,4,6,44)           -94.0038         estimate D2E/DX2                !
 ! D95   D(9,4,6,7)             98.7696         estimate D2E/DX2                !
 ! D96   D(9,4,6,8)            -41.0079         estimate D2E/DX2                !
 ! D97   D(9,4,6,16)            30.1238         estimate D2E/DX2                !
 ! D98   D(9,4,6,43)          -117.1993         estimate D2E/DX2                !
 ! D99   D(9,4,6,44)          -177.1511         estimate D2E/DX2                !
 ! D100  D(1,4,9,8)            -41.0967         estimate D2E/DX2                !
 ! D101  D(1,4,9,10)          -179.3687         estimate D2E/DX2                !
 ! D102  D(1,4,9,11)            96.2836         estimate D2E/DX2                !
 ! D103  D(1,4,9,15)            29.2207         estimate D2E/DX2                !
 ! D104  D(1,4,9,26)          -113.3763         estimate D2E/DX2                !
 ! D105  D(6,4,9,8)             40.5783         estimate D2E/DX2                !
 ! D106  D(6,4,9,10)           -97.6937         estimate D2E/DX2                !
 ! D107  D(6,4,9,11)           177.9586         estimate D2E/DX2                !
 ! D108  D(6,4,9,15)           110.8957         estimate D2E/DX2                !
 ! D109  D(6,4,9,26)           -31.7013         estimate D2E/DX2                !
 ! D110  D(1,5,12,2)            41.5304         estimate D2E/DX2                !
 ! D111  D(1,5,12,11)          -94.6767         estimate D2E/DX2                !
 ! D112  D(1,5,12,14)          114.8759         estimate D2E/DX2                !
 ! D113  D(1,5,12,15)          -25.5793         estimate D2E/DX2                !
 ! D114  D(1,5,12,52)         -176.7414         estimate D2E/DX2                !
 ! D115  D(1,5,21,2)           -43.5091         estimate D2E/DX2                !
 ! D116  D(1,5,21,22)         -173.5038         estimate D2E/DX2                !
 ! D117  D(1,5,21,23)           23.8538         estimate D2E/DX2                !
 ! D118  D(1,5,21,48)           48.5584         estimate D2E/DX2                !
 ! D119  D(1,5,21,49)           98.8001         estimate D2E/DX2                !
 ! D120  D(1,5,21,51)         -136.5867         estimate D2E/DX2                !
 ! D121  D(4,6,7,13)           -96.3822         estimate D2E/DX2                !
 ! D122  D(4,6,7,18)          -178.4032         estimate D2E/DX2                !
 ! D123  D(8,6,7,13)           -26.8778         estimate D2E/DX2                !
 ! D124  D(8,6,7,18)          -108.8988         estimate D2E/DX2                !
 ! D125  D(16,6,7,13)           40.6926         estimate D2E/DX2                !
 ! D126  D(16,6,7,18)          -41.3285         estimate D2E/DX2                !
 ! D127  D(43,6,7,13)          114.5184         estimate D2E/DX2                !
 ! D128  D(43,6,7,18)           32.4973         estimate D2E/DX2                !
 ! D129  D(44,6,7,13)          179.9609         estimate D2E/DX2                !
 ! D130  D(44,6,7,18)           97.9399         estimate D2E/DX2                !
 ! D131  D(4,6,8,1)            -42.199          estimate D2E/DX2                !
 ! D132  D(4,6,8,9)             41.1571         estimate D2E/DX2                !
 ! D133  D(7,6,8,1)           -111.5037         estimate D2E/DX2                !
 ! D134  D(7,6,8,9)            -28.1476         estimate D2E/DX2                !
 ! D135  D(16,6,8,1)          -178.6024         estimate D2E/DX2                !
 ! D136  D(16,6,8,9)           -95.2463         estimate D2E/DX2                !
 ! D137  D(43,6,8,1)            97.1176         estimate D2E/DX2                !
 ! D138  D(43,6,8,9)          -179.5263         estimate D2E/DX2                !
 ! D139  D(44,6,8,1)            30.0904         estimate D2E/DX2                !
 ! D140  D(44,6,8,9)           113.4465         estimate D2E/DX2                !
 ! D141  D(4,6,16,13)           28.685          estimate D2E/DX2                !
 ! D142  D(4,6,16,18)          110.737          estimate D2E/DX2                !
 ! D143  D(7,6,16,13)          -40.4067         estimate D2E/DX2                !
 ! D144  D(7,6,16,18)           41.6452         estimate D2E/DX2                !
 ! D145  D(8,6,16,13)           99.9649         estimate D2E/DX2                !
 ! D146  D(8,6,16,18)         -177.9831         estimate D2E/DX2                !
 ! D147  D(43,6,16,13)        -172.6523         estimate D2E/DX2                !
 ! D148  D(43,6,16,18)         -90.6003         estimate D2E/DX2                !
 ! D149  D(44,6,16,13)        -110.1438         estimate D2E/DX2                !
 ! D150  D(44,6,16,18)         -28.0918         estimate D2E/DX2                !
 ! D151  D(4,6,43,42)         -106.06           estimate D2E/DX2                !
 ! D152  D(4,6,43,45)          -17.2543         estimate D2E/DX2                !
 ! D153  D(7,6,43,42)           24.5982         estimate D2E/DX2                !
 ! D154  D(7,6,43,45)          113.404          estimate D2E/DX2                !
 ! D155  D(8,6,43,42)          179.3155         estimate D2E/DX2                !
 ! D156  D(8,6,43,45)          -91.8788         estimate D2E/DX2                !
 ! D157  D(16,6,43,42)          97.0099         estimate D2E/DX2                !
 ! D158  D(16,6,43,45)        -174.1844         estimate D2E/DX2                !
 ! D159  D(44,6,43,42)         -43.8648         estimate D2E/DX2                !
 ! D160  D(44,6,43,45)          44.9409         estimate D2E/DX2                !
 ! D161  D(4,6,44,42)         -171.1201         estimate D2E/DX2                !
 ! D162  D(4,6,44,45)           97.8297         estimate D2E/DX2                !
 ! D163  D(7,6,44,42)          -88.5461         estimate D2E/DX2                !
 ! D164  D(7,6,44,45)         -179.5964         estimate D2E/DX2                !
 ! D165  D(8,6,44,42)          116.7641         estimate D2E/DX2                !
 ! D166  D(8,6,44,45)           25.7138         estimate D2E/DX2                !
 ! D167  D(16,6,44,42)         -19.7302         estimate D2E/DX2                !
 ! D168  D(16,6,44,45)        -110.7805         estimate D2E/DX2                !
 ! D169  D(43,6,44,42)          45.5665         estimate D2E/DX2                !
 ! D170  D(43,6,44,45)         -45.4838         estimate D2E/DX2                !
 ! D171  D(6,7,13,10)           94.8851         estimate D2E/DX2                !
 ! D172  D(6,7,13,16)          -40.7994         estimate D2E/DX2                !
 ! D173  D(6,7,13,26)           25.2635         estimate D2E/DX2                !
 ! D174  D(6,7,13,37)          177.161          estimate D2E/DX2                !
 ! D175  D(6,7,13,38)         -114.0544         estimate D2E/DX2                !
 ! D176  D(6,7,18,16)           42.4293         estimate D2E/DX2                !
 ! D177  D(6,7,18,19)         -100.5579         estimate D2E/DX2                !
 ! D178  D(6,7,18,20)          -34.9177         estimate D2E/DX2                !
 ! D179  D(6,7,18,40)          175.2832         estimate D2E/DX2                !
 ! D180  D(6,7,18,42)          -55.0065         estimate D2E/DX2                !
 ! D181  D(1,8,9,4)             41.1273         estimate D2E/DX2                !
 ! D182  D(1,8,9,10)           110.1806         estimate D2E/DX2                !
 ! D183  D(1,8,9,11)           -27.2937         estimate D2E/DX2                !
 ! D184  D(1,8,9,15)           -94.1635         estimate D2E/DX2                !
 ! D185  D(1,8,9,26)           177.3106         estimate D2E/DX2                !
 ! D186  D(6,8,9,4)            -40.506          estimate D2E/DX2                !
 ! D187  D(6,8,9,10)            28.5474         estimate D2E/DX2                !
 ! D188  D(6,8,9,11)          -108.927          estimate D2E/DX2                !
 ! D189  D(6,8,9,15)          -175.7967         estimate D2E/DX2                !
 ! D190  D(6,8,9,26)            95.6773         estimate D2E/DX2                !
 ! D191  D(4,9,10,13)           94.1269         estimate D2E/DX2                !
 ! D192  D(4,9,10,24)          176.6718         estimate D2E/DX2                !
 ! D193  D(8,9,10,13)           25.5338         estimate D2E/DX2                !
 ! D194  D(8,9,10,24)          108.0787         estimate D2E/DX2                !
 ! D195  D(11,9,10,13)         176.2022         estimate D2E/DX2                !
 ! D196  D(11,9,10,24)        -101.2528         estimate D2E/DX2                !
 ! D197  D(15,9,10,13)        -117.396          estimate D2E/DX2                !
 ! D198  D(15,9,10,24)         -34.8511         estimate D2E/DX2                !
 ! D199  D(26,9,10,13)         -43.5607         estimate D2E/DX2                !
 ! D200  D(26,9,10,24)          38.9842         estimate D2E/DX2                !
 ! D201  D(4,9,11,12)          -94.6793         estimate D2E/DX2                !
 ! D202  D(4,9,11,27)         -175.7861         estimate D2E/DX2                !
 ! D203  D(8,9,11,12)          -26.4008         estimate D2E/DX2                !
 ! D204  D(8,9,11,27)         -107.5076         estimate D2E/DX2                !
 ! D205  D(10,9,11,12)        -177.6844         estimate D2E/DX2                !
 ! D206  D(10,9,11,27)         101.2089         estimate D2E/DX2                !
 ! D207  D(15,9,11,12)          41.4508         estimate D2E/DX2                !
 ! D208  D(15,9,11,27)         -39.656          estimate D2E/DX2                !
 ! D209  D(26,9,11,12)         116.6252         estimate D2E/DX2                !
 ! D210  D(26,9,11,27)          35.5184         estimate D2E/DX2                !
 ! D211  D(4,9,15,12)           27.8393         estimate D2E/DX2                !
 ! D212  D(4,9,15,27)          108.3159         estimate D2E/DX2                !
 ! D213  D(8,9,15,12)           97.719          estimate D2E/DX2                !
 ! D214  D(8,9,15,27)          178.1956         estimate D2E/DX2                !
 ! D215  D(10,9,15,12)        -107.7331         estimate D2E/DX2                !
 ! D216  D(10,9,15,27)         -27.2565         estimate D2E/DX2                !
 ! D217  D(11,9,15,12)         -39.9638         estimate D2E/DX2                !
 ! D218  D(11,9,15,27)          40.5128         estimate D2E/DX2                !
 ! D219  D(26,9,15,12)        -178.2182         estimate D2E/DX2                !
 ! D220  D(26,9,15,27)         -97.7416         estimate D2E/DX2                !
 ! D221  D(4,9,26,13)          -25.1167         estimate D2E/DX2                !
 ! D222  D(4,9,26,24)         -107.1783         estimate D2E/DX2                !
 ! D223  D(8,9,26,13)          -96.2244         estimate D2E/DX2                !
 ! D224  D(8,9,26,24)         -178.286          estimate D2E/DX2                !
 ! D225  D(10,9,26,13)          42.2198         estimate D2E/DX2                !
 ! D226  D(10,9,26,24)         -39.8418         estimate D2E/DX2                !
 ! D227  D(11,9,26,13)         109.5884         estimate D2E/DX2                !
 ! D228  D(11,9,26,24)          27.5269         estimate D2E/DX2                !
 ! D229  D(15,9,26,13)        -178.389          estimate D2E/DX2                !
 ! D230  D(15,9,26,24)          99.5495         estimate D2E/DX2                !
 ! D231  D(9,10,13,7)          -94.6779         estimate D2E/DX2                !
 ! D232  D(9,10,13,16)         -21.028          estimate D2E/DX2                !
 ! D233  D(9,10,13,18)         -91.1275         estimate D2E/DX2                !
 ! D234  D(9,10,13,26)          43.2197         estimate D2E/DX2                !
 ! D235  D(9,10,13,37)        -175.5894         estimate D2E/DX2                !
 ! D236  D(9,10,13,38)         118.7773         estimate D2E/DX2                !
 ! D237  D(24,10,13,7)         179.6246         estimate D2E/DX2                !
 ! D238  D(24,10,13,16)       -106.7255         estimate D2E/DX2                !
 ! D239  D(24,10,13,18)       -176.825          estimate D2E/DX2                !
 ! D240  D(24,10,13,26)        -42.4778         estimate D2E/DX2                !
 ! D241  D(24,10,13,37)         98.7131         estimate D2E/DX2                !
 ! D242  D(24,10,13,38)         33.0797         estimate D2E/DX2                !
 ! D243  D(9,10,24,17)        -113.0083         estimate D2E/DX2                !
 ! D244  D(9,10,24,25)         176.5497         estimate D2E/DX2                !
 ! D245  D(9,10,24,26)         -40.3506         estimate D2E/DX2                !
 ! D246  D(9,10,24,28)          90.481          estimate D2E/DX2                !
 ! D247  D(9,10,24,33)         172.7958         estimate D2E/DX2                !
 ! D248  D(13,10,24,17)        -28.2789         estimate D2E/DX2                !
 ! D249  D(13,10,24,25)        -98.721          estimate D2E/DX2                !
 ! D250  D(13,10,24,26)         44.3787         estimate D2E/DX2                !
 ! D251  D(13,10,24,28)        175.2104         estimate D2E/DX2                !
 ! D252  D(13,10,24,33)       -102.4749         estimate D2E/DX2                !
 ! D253  D(9,11,12,2)           23.2852         estimate D2E/DX2                !
 ! D254  D(9,11,12,5)           95.4188         estimate D2E/DX2                !
 ! D255  D(9,11,12,14)        -121.2435         estimate D2E/DX2                !
 ! D256  D(9,11,12,15)         -40.6409         estimate D2E/DX2                !
 ! D257  D(9,11,12,21)          91.4586         estimate D2E/DX2                !
 ! D258  D(9,11,12,52)         178.1156         estimate D2E/DX2                !
 ! D259  D(27,11,12,2)         107.5741         estimate D2E/DX2                !
 ! D260  D(27,11,12,5)         179.7077         estimate D2E/DX2                !
 ! D261  D(27,11,12,14)        -36.9546         estimate D2E/DX2                !
 ! D262  D(27,11,12,15)         43.648          estimate D2E/DX2                !
 ! D263  D(27,11,12,21)        175.7476         estimate D2E/DX2                !
 ! D264  D(27,11,12,52)        -97.5955         estimate D2E/DX2                !
 ! D265  D(9,11,27,15)          40.7433         estimate D2E/DX2                !
 ! D266  D(9,11,27,28)         -91.7516         estimate D2E/DX2                !
 ! D267  D(9,11,27,30)         -91.0246         estimate D2E/DX2                !
 ! D268  D(9,11,27,55)        -175.2539         estimate D2E/DX2                !
 ! D269  D(9,11,27,56)         108.9597         estimate D2E/DX2                !
 ! D270  D(9,11,27,57)         179.6497         estimate D2E/DX2                !
 ! D271  D(12,11,27,15)        -45.8448         estimate D2E/DX2                !
 ! D272  D(12,11,27,28)       -178.3397         estimate D2E/DX2                !
 ! D273  D(12,11,27,30)       -177.6127         estimate D2E/DX2                !
 ! D274  D(12,11,27,55)         98.158          estimate D2E/DX2                !
 ! D275  D(12,11,27,56)         22.3716         estimate D2E/DX2                !
 ! D276  D(12,11,27,57)         93.0615         estimate D2E/DX2                !
 ! D277  D(2,12,14,51)         107.0837         estimate D2E/DX2                !
 ! D278  D(2,12,14,54)        -171.1716         estimate D2E/DX2                !
 ! D279  D(5,12,14,51)          33.8486         estimate D2E/DX2                !
 ! D280  D(5,12,14,54)         115.5933         estimate D2E/DX2                !
 ! D281  D(11,12,14,51)        -97.8582         estimate D2E/DX2                !
 ! D282  D(11,12,14,54)        -16.1135         estimate D2E/DX2                !
 ! D283  D(15,12,14,51)       -173.8708         estimate D2E/DX2                !
 ! D284  D(15,12,14,54)        -92.1261         estimate D2E/DX2                !
 ! D285  D(21,12,14,51)         58.321          estimate D2E/DX2                !
 ! D286  D(21,12,14,54)        140.0657         estimate D2E/DX2                !
 ! D287  D(52,12,14,51)        -36.2141         estimate D2E/DX2                !
 ! D288  D(52,12,14,54)         45.5306         estimate D2E/DX2                !
 ! D289  D(2,12,15,9)          -98.1235         estimate D2E/DX2                !
 ! D290  D(2,12,15,27)         176.2628         estimate D2E/DX2                !
 ! D291  D(5,12,15,9)          -30.0667         estimate D2E/DX2                !
 ! D292  D(5,12,15,27)        -115.6805         estimate D2E/DX2                !
 ! D293  D(11,12,15,9)          40.7605         estimate D2E/DX2                !
 ! D294  D(11,12,15,27)        -44.8533         estimate D2E/DX2                !
 ! D295  D(14,12,15,9)        -179.6434         estimate D2E/DX2                !
 ! D296  D(14,12,15,27)         94.7429         estimate D2E/DX2                !
 ! D297  D(21,12,15,9)         -94.8839         estimate D2E/DX2                !
 ! D298  D(21,12,15,27)        179.5023         estimate D2E/DX2                !
 ! D299  D(52,12,15,9)         105.623          estimate D2E/DX2                !
 ! D300  D(52,12,15,27)         20.0092         estimate D2E/DX2                !
 ! D301  D(11,12,21,22)        105.219          estimate D2E/DX2                !
 ! D302  D(11,12,21,23)       -122.4484         estimate D2E/DX2                !
 ! D303  D(11,12,21,48)        -57.1973         estimate D2E/DX2                !
 ! D304  D(11,12,21,49)          8.4995         estimate D2E/DX2                !
 ! D305  D(11,12,21,51)        116.6868         estimate D2E/DX2                !
 ! D306  D(14,12,21,22)        -53.909          estimate D2E/DX2                !
 ! D307  D(14,12,21,23)         78.4236         estimate D2E/DX2                !
 ! D308  D(14,12,21,48)        143.6747         estimate D2E/DX2                !
 ! D309  D(14,12,21,49)       -150.6285         estimate D2E/DX2                !
 ! D310  D(14,12,21,51)        -42.4412         estimate D2E/DX2                !
 ! D311  D(15,12,21,22)       -142.1899         estimate D2E/DX2                !
 ! D312  D(15,12,21,23)         -9.8573         estimate D2E/DX2                !
 ! D313  D(15,12,21,48)         55.3938         estimate D2E/DX2                !
 ! D314  D(15,12,21,49)        121.0906         estimate D2E/DX2                !
 ! D315  D(15,12,21,51)       -130.7221         estimate D2E/DX2                !
 ! D316  D(52,12,21,22)         23.9318         estimate D2E/DX2                !
 ! D317  D(52,12,21,23)        156.2644         estimate D2E/DX2                !
 ! D318  D(52,12,21,48)       -138.4845         estimate D2E/DX2                !
 ! D319  D(52,12,21,49)        -72.7877         estimate D2E/DX2                !
 ! D320  D(52,12,21,51)         35.3996         estimate D2E/DX2                !
 ! D321  D(2,12,52,51)         -26.7733         estimate D2E/DX2                !
 ! D322  D(2,12,52,54)        -109.375          estimate D2E/DX2                !
 ! D323  D(5,12,52,51)         -94.473          estimate D2E/DX2                !
 ! D324  D(5,12,52,54)        -177.0748         estimate D2E/DX2                !
 ! D325  D(11,12,52,51)       -179.2617         estimate D2E/DX2                !
 ! D326  D(11,12,52,54)         98.1365         estimate D2E/DX2                !
 ! D327  D(14,12,52,51)         36.512          estimate D2E/DX2                !
 ! D328  D(14,12,52,54)        -46.0898         estimate D2E/DX2                !
 ! D329  D(15,12,52,51)        116.5412         estimate D2E/DX2                !
 ! D330  D(15,12,52,54)         33.9394         estimate D2E/DX2                !
 ! D331  D(21,12,52,51)        -47.3645         estimate D2E/DX2                !
 ! D332  D(21,12,52,54)       -129.9663         estimate D2E/DX2                !
 ! D333  D(7,13,16,6)           40.9776         estimate D2E/DX2                !
 ! D334  D(10,13,16,6)         -34.1983         estimate D2E/DX2                !
 ! D335  D(26,13,16,6)         -98.2731         estimate D2E/DX2                !
 ! D336  D(37,13,16,6)         106.2638         estimate D2E/DX2                !
 ! D337  D(38,13,16,6)         172.2154         estimate D2E/DX2                !
 ! D338  D(10,13,18,19)        -10.9897         estimate D2E/DX2                !
 ! D339  D(10,13,18,20)        118.5704         estimate D2E/DX2                !
 ! D340  D(10,13,18,40)       -106.0376         estimate D2E/DX2                !
 ! D341  D(10,13,18,42)         48.0211         estimate D2E/DX2                !
 ! D342  D(26,13,18,19)       -127.3057         estimate D2E/DX2                !
 ! D343  D(26,13,18,20)          2.2545         estimate D2E/DX2                !
 ! D344  D(26,13,18,40)        137.6464         estimate D2E/DX2                !
 ! D345  D(26,13,18,42)        -68.2948         estimate D2E/DX2                !
 ! D346  D(37,13,18,19)         69.1654         estimate D2E/DX2                !
 ! D347  D(37,13,18,20)       -161.2745         estimate D2E/DX2                !
 ! D348  D(37,13,18,40)        -25.8826         estimate D2E/DX2                !
 ! D349  D(37,13,18,42)        128.1762         estimate D2E/DX2                !
 ! D350  D(38,13,18,19)        149.0103         estimate D2E/DX2                !
 ! D351  D(38,13,18,20)        -81.4295         estimate D2E/DX2                !
 ! D352  D(38,13,18,40)         53.9624         estimate D2E/DX2                !
 ! D353  D(38,13,18,42)       -151.9788         estimate D2E/DX2                !
 ! D354  D(7,13,26,9)           28.9508         estimate D2E/DX2                !
 ! D355  D(7,13,26,24)         115.5463         estimate D2E/DX2                !
 ! D356  D(10,13,26,9)         -43.0264         estimate D2E/DX2                !
 ! D357  D(10,13,26,24)         43.569          estimate D2E/DX2                !
 ! D358  D(16,13,26,9)          95.7262         estimate D2E/DX2                !
 ! D359  D(16,13,26,24)       -177.6783         estimate D2E/DX2                !
 ! D360  D(18,13,26,9)          96.2915         estimate D2E/DX2                !
 ! D361  D(18,13,26,24)       -177.113          estimate D2E/DX2                !
 ! D362  D(37,13,26,9)        -108.2177         estimate D2E/DX2                !
 ! D363  D(37,13,26,24)        -21.6222         estimate D2E/DX2                !
 ! D364  D(38,13,26,9)         178.4352         estimate D2E/DX2                !
 ! D365  D(38,13,26,24)        -94.9693         estimate D2E/DX2                !
 ! D366  D(7,13,37,36)         175.1432         estimate D2E/DX2                !
 ! D367  D(7,13,37,39)          97.8534         estimate D2E/DX2                !
 ! D368  D(10,13,37,36)        -98.1947         estimate D2E/DX2                !
 ! D369  D(10,13,37,39)       -175.4845         estimate D2E/DX2                !
 ! D370  D(16,13,37,36)        109.4162         estimate D2E/DX2                !
 ! D371  D(16,13,37,39)         32.1264         estimate D2E/DX2                !
 ! D372  D(18,13,37,36)        127.1698         estimate D2E/DX2                !
 ! D373  D(18,13,37,39)         49.88           estimate D2E/DX2                !
 ! D374  D(26,13,37,36)        -33.8428         estimate D2E/DX2                !
 ! D375  D(26,13,37,39)       -111.1326         estimate D2E/DX2                !
 ! D376  D(38,13,37,36)         42.6079         estimate D2E/DX2                !
 ! D377  D(38,13,37,39)        -34.6819         estimate D2E/DX2                !
 ! D378  D(7,13,38,36)        -111.2008         estimate D2E/DX2                !
 ! D379  D(7,13,38,39)         -34.4888         estimate D2E/DX2                !
 ! D380  D(10,13,38,36)         23.9103         estimate D2E/DX2                !
 ! D381  D(10,13,38,39)        100.6222         estimate D2E/DX2                !
 ! D382  D(16,13,38,36)        175.9498         estimate D2E/DX2                !
 ! D383  D(16,13,38,39)       -107.3383         estimate D2E/DX2                !
 ! D384  D(18,13,38,36)       -135.1367         estimate D2E/DX2                !
 ! D385  D(18,13,38,39)        -58.4247         estimate D2E/DX2                !
 ! D386  D(26,13,38,36)         96.0771         estimate D2E/DX2                !
 ! D387  D(26,13,38,39)        172.7891         estimate D2E/DX2                !
 ! D388  D(37,13,38,36)        -42.2864         estimate D2E/DX2                !
 ! D389  D(37,13,38,39)         34.4255         estimate D2E/DX2                !
 ! D390  D(12,14,51,21)        -52.9672         estimate D2E/DX2                !
 ! D391  D(12,14,51,22)        -78.7981         estimate D2E/DX2                !
 ! D392  D(12,14,51,52)         41.8995         estimate D2E/DX2                !
 ! D393  D(12,14,51,60)        156.0632         estimate D2E/DX2                !
 ! D394  D(12,14,54,52)        -48.448          estimate D2E/DX2                !
 ! D395  D(12,14,54,53)       -161.0262         estimate D2E/DX2                !
 ! D396  D(12,14,54,55)         21.1885         estimate D2E/DX2                !
 ! D397  D(12,14,54,56)         94.0261         estimate D2E/DX2                !
 ! D398  D(12,14,54,57)         91.6275         estimate D2E/DX2                !
 ! D399  D(9,15,27,11)         -40.64           estimate D2E/DX2                !
 ! D400  D(9,15,27,28)          27.2035         estimate D2E/DX2                !
 ! D401  D(9,15,27,29)         127.853          estimate D2E/DX2                !
 ! D402  D(9,15,27,30)          88.5867         estimate D2E/DX2                !
 ! D403  D(9,15,27,55)        -111.8987         estimate D2E/DX2                !
 ! D404  D(9,15,27,56)        -173.5992         estimate D2E/DX2                !
 ! D405  D(9,15,27,57)         174.0282         estimate D2E/DX2                !
 ! D406  D(12,15,27,11)         44.079          estimate D2E/DX2                !
 ! D407  D(12,15,27,28)        111.9224         estimate D2E/DX2                !
 ! D408  D(12,15,27,29)       -147.428          estimate D2E/DX2                !
 ! D409  D(12,15,27,30)        173.3057         estimate D2E/DX2                !
 ! D410  D(12,15,27,55)        -27.1798         estimate D2E/DX2                !
[...]
 .00001373,-0.00003292,0.00005891,0.00001482,0.00001948,-0.00000787,0.0
 0001558,0.00001894,-0.00003982,0.00001083,-0.00006259,0.00007932,-0.00
 002011,0.00000676,0.00000162,-0.00008058,0.00001476,0.00000372,0.00020
 328,0.00006411,-0.00010424,-0.00000209,-0.00004531,-0.00004196,-0.0000
 1163,-0.00009708,-0.00002757,0.00022826,-0.00039254,0.00041835,-0.0000
 9267,0.00003910,-0.00003521,0.02305729,-0.00009356,-0.00000598,0.00003
 003,0.00000644,0.00002985,-0.00004658,-0.00000212,-0.00001722,0.000000
 43,0.00003175,0.00000029,-0.00002162,0.00002242,0.00003606,-0.00004019
 ,-0.00000339,0.00000618,0.00005586,0.00005987,-0.00002164,-0.00002134,
 0.00003152,0.00000189,-0.00002238,-0.00026924,0.00000156,0.00023098,-0
 .00002218,-0.00002923,-0.00026807,0.00005465,0.00004609,-0.00011180,0.
 00008843,-0.00001240,0.00005705,-0.00060137,-0.00003844,-0.00013972,0.
 00000102,-0.00000075,-0.00004949,-0.00006409,0.00006994,-0.00011969,0.
 00008656,-0.00001534,-0.00004875,-0.00029397,0.00178023,0.00027765,-0.
 00003227,-0.00008412,0.00011131,-0.00000031,-0.00001459,-0.00002954,-0
 .00002842,0.00003288,0.00006664,0.00005329,-0.00002165,-0.00003618,-0.
 00005397,-0.00003322,0.00003772,-0.00001857,0.00001789,0.00005979,-0.0
 0159419,-0.00203743,0.00506844,0.00057085,-0.00139107,-0.00076112,0.00
 025469,0.00033710,0.00010456,-0.00004387,-0.00044385,0.00039351,-0.000
 20699,0.00043832,0.00012817,0.00000363,-0.00018930,-0.00016155,0.00026
 263,0.00122179,0.00138110,0.00011249,-0.00004966,-0.00064056,0.0032787
 0,0.00196883,0.00456670,0.02367048,-0.12901586,0.11694186,0.00575678,-
 0.00406496,0.00047119,-0.00241578,0.00174095,-0.00280776,-0.00172298,-
 0.00167022,0.00302711,0.00049703,0.00021924,0.00009507,0.00033958,-0.0
 0009799,-0.00018191,0.00025535,-0.00028175,0.00011396,-0.00000882,0.00
 005208,-0.00005174,-0.00013799,0.00013617,-0.00024626,0.00017710,0.000
 02249,-0.00002016,-0.00001349,-0.00002039,-0.00000034,-0.00002151,0.00
 001581,0.00000609,0.00007663,0.00003856,-0.00007809,0.00000354,0.00000
 652,0.00002790,-0.00008604,-0.00003382,0.00008034,0.00003291,0.0000759
 2,-0.00015250,-0.00001657,-0.00004222,0.00002084,-0.00007274,-0.000059
 58,0.00012548,-0.00007405,0.00011405,-0.00014171,0.00001758,0.00000840
 ,0.00000785,0.00017963,-0.00000937,-0.00002620,-0.00029701,-0.00011018
 ,0.00015089,0.00001082,0.00004483,-0.00001080,0.00008202,0.00011324,-0
 .00014952,-0.00038706,-0.00021347,0.00021330,0.00039260,0.00012330,-0.
 00003616,-0.02782032,0.13140668,0.00007596,0.00001357,-0.00004663,-0.0
 0000222,-0.00000579,0.00005193,0.00000533,0.00001626,0.00000311,-0.000
 01942,-0.00001055,0.00003322,-0.00000425,-0.00003884,0.00003055,-0.000
 01300,0.00000955,-0.00008541,-0.00005237,-0.00001782,-0.00002027,0.000
 00018,-0.00000350,0.00003688,0.00032203,0.00011994,-0.00018755,0.00007
 880,-0.00013634,0.00022495,0.00003595,-0.00012445,0.00005542,-0.000133
 43,0.00000964,-0.00005972,0.00076832,0.00012685,0.00016783,0.00000440,
 0.00000176,0.00004739,0.00005522,-0.00004534,0.00009915,-0.00004713,-0
 .00000469,0.00003378,0.00249194,0.00410671,-0.00451649,0.00004779,0.00
 007015,0.00001863,-0.00000387,0.00002664,0.00002597,0.00005379,-0.0000
 0662,-0.00010647,-0.00003682,0.00000257,0.00002812,0.00004205,0.000029
 87,-0.00002925,0.00001029,-0.00001520,-0.00005304,0.00149652,0.0031784
 8,-0.00400873,0.00505671,0.00277463,0.00111407,-0.00027650,-0.00042701
 ,0.00000736,-0.00011030,0.00014590,0.00010543,0.00040539,-0.00023262,-
 0.00003418,-0.00002800,-0.00003233,0.00000632,-0.00056459,-0.00023669,
 -0.00075998,-0.00017192,0.00024459,-0.00003661,-0.00032936,0.00083435,
 0.00056846,-0.03178980,0.11586089,-0.13620284,-0.00431141,0.00109015,0
 .00232894,0.00217868,-0.00137830,0.00319528,0.00147606,0.00145664,-0.0
 0400010,-0.00039238,-0.00021531,-0.00031004,-0.00033872,0.00034971,-0.
 00007951,-0.00024251,0.00003491,0.00006924,0.00007796,0.00001449,-0.00
 008443,0.00015206,-0.00011628,0.00013985,-0.00011515,-0.00009490,0.000
 06220,0.00001023,0.00003802,0.00000025,0.00001594,-0.00001704,-0.00001
 219,-0.00009764,-0.00002917,0.00006391,0.00000328,-0.00001496,-0.00001
 950,0.00008264,0.00002912,-0.00007161,-0.00004116,-0.00005966,0.000134
 10,0.00001605,0.00003740,-0.00001812,0.00007132,0.00005549,-0.00011704
 ,0.00008631,-0.00009264,0.00011595,-0.00001002,-0.00000309,-0.00001258
 ,-0.00016752,0.00002067,0.00002080,0.00025882,0.00006634,-0.00016811,-
 0.00005082,-0.00010475,0.00001622,-0.00008761,0.00002171,0.00006451,0.
 00004992,0.00015673,0.00005575,-0.00026157,-0.00001852,-0.00001659,0.0
 2426724,-0.12754593,0.14224707,0.00008391,0.00047345,-0.00025826,-0.00
 037725,-0.00035673,-0.00000196,0.00006169,-0.00039009,0.00006710,-0.00
 000173,-0.00005288,0.00005951,0.00084590,0.00009281,0.00071270,-0.0000
 4603,0.00003652,-0.00003872,0.00001402,-0.00004228,0.00002270,-0.00003
 609,-0.00007008,0.00003727,0.00029256,0.00011622,-0.00046514,-0.000080
 20,-0.00003673,0.00006228,-0.00005517,-0.00038981,-0.00022653,-0.00420
 096,0.00236584,-0.00066236,0.00001088,0.00010238,-0.00014891,0.0017999
 8,0.00686115,0.00152624,-0.00018262,0.00016785,0.00002311,-0.00000063,
 -0.00002985,-0.00000687,-0.00003025,-0.00003180,-0.00003441,-0.0000303
 8,-0.00000170,0.00022944,-0.00002388,0.00002105,-0.00021497,-0.0000079
 8,0.00003057,-0.00006113,-0.00194784,0.00380697,-0.00156386,-0.0064377
 3,-0.00571487,0.00640299,-0.00012682,0.00025334,0.00055328,-0.00001146
 ,0.00006278,-0.00011715,0.00002888,-0.00001497,0.00001849,-0.00000467,
 -0.00001560,0.00005017,0.00070053,-0.00000731,-0.00015329,-0.00008239,
 0.00006318,0.00003717,0.00005726,0.00012689,0.00001356,-0.00060423,0.0
 0009650,0.00024175,0.00039041,-0.00013110,0.00002863,0.00003322,-0.000
 02548,0.00003750,-0.00010283,-0.00008335,0.00017659,0.00012367,-0.0000
 8113,-0.00005181,-0.00003202,0.00006086,-0.00011327,0.00007963,-0.0000
 2630,0.00012199,-0.00001820,0.00001701,-0.00000849,-0.00002705,0.00000
 189,-0.00000146,0.00001615,-0.00013339,0.00015494,0.00002443,0.0000514
 0,-0.00018762,-0.00008742,0.00009690,-0.00014370,0.00051817,-0.0001029
 7,0.00026436,0.00001069,0.00007980,-0.00002356,-0.00004801,0.00001126,
 -0.00009970,-0.00035675,0.00027578,-0.00039243,0.00012809,0.00006946,0
 .00024981,-0.00009590,-0.00009957,0.00015712,0.00059044,-0.00002272,0.
 00023952,-0.00012859,-0.00105220,-0.00026091,-0.00022551,-0.00017384,0
 .00026090,-0.23017262,0.07602291,-0.02943783,-0.00138666,-0.00144302,-
 0.00740875,0.00394766,0.00007673,-0.00116560,-0.00288226,-0.00165231,0
 .00172379,-0.00000176,0.00001889,0.00016242,-0.00007383,-0.00020622,-0
 .00023768,-0.00054865,0.00038176,-0.00032593,0.00039478,0.00004144,0.0
 0001914,-0.00002933,0.00013393,-0.00013189,0.24054188,-0.00024412,0.00
 025875,-0.00012049,0.00014252,-0.00035971,-0.00011683,0.00013488,0.000
 05191,0.00000699,-0.00001289,-0.00003276,-0.00003981,-0.00025410,-0.00
 022813,0.00003555,0.00004341,0.00001322,0.00000889,-0.00000543,0.00001
 414,-0.00000630,-0.00005155,0.00005052,-0.00003593,-0.00009431,0.00001
 596,0.00025306,0.00002875,0.00000727,-0.00001571,-0.00010677,-0.000110
 28,-0.00011037,0.00146515,0.00037194,-0.00149959,-0.00000203,-0.000031
 61,0.00005768,0.00488898,-0.00089517,0.00187777,-0.00001205,-0.0000250
 7,0.00000016,-0.00000100,0.00000849,0.00000302,0.00001111,0.00001189,0
 .00001120,0.00001307,-0.00000179,-0.00007502,0.00000551,-0.00000648,0.
 00006576,0.00000267,-0.00000941,0.00001983,-0.00013618,0.00091928,0.00
 081727,-0.00297978,0.00252699,-0.00318898,0.00031171,-0.00010923,-0.00
 036949,-0.00001295,0.00000507,0.00003149,0.00000159,0.00000303,-0.0000
 1053,-0.00000945,0.00000005,-0.00002484,-0.00047184,-0.00012106,0.0005
 2275,0.00007112,-0.00002487,-0.00002955,-0.00005119,-0.00004016,-0.000
 03628,0.00017918,-0.00005724,-0.00014240,-0.00014506,0.00007094,-0.000
 00821,-0.00001508,-0.00000172,-0.00001266,0.00001258,0.00002603,-0.000
 05420,-0.00002896,0.00002822,0.00003082,0.00000919,-0.00001954,0.00003
 576,-0.00002145,0.00000856,-0.00003485,0.00000539,-0.00000644,0.000002
 41,0.00000775,-0.00000072,-0.00000142,-0.00000531,0.00004302,-0.000048
 18,-0.00000766,-0.00001644,0.00005898,0.00002751,-0.00003045,0.0000447
 5,-0.00014980,0.00002571,-0.00007719,-0.00000449,0.00000142,0.00000409
 ,0.00000469,-0.00001047,0.00001986,0.00003344,-0.00013171,0.00018812,0
 .00005831,-0.00003629,-0.00008424,0.00005264,0.00004161,-0.00006857,-0
 .00027359,-0.00023001,-0.00003945,0.00011960,0.00004327,-0.00013368,0.
 00005150,0.00001587,-0.00007490,0.07902459,-0.04389838,0.01039554,-0.0
 0229068,0.00236765,0.00525569,-0.00340474,-0.00136203,0.00196296,0.003
 60179,-0.00076176,-0.00037443,-0.00008429,-0.00017240,-0.00043768,0.00
 015830,-0.00007683,-0.00006168,0.00018221,-0.00023651,0.00043288,-0.00
 025021,-0.00004053,-0.00001800,0.00000735,-0.00004212,0.00003955,-0.07
 958576,0.04218180,0.00032410,-0.00003733,-0.00008500,-0.00035966,-0.00
 052262,0.00000585,0.00007379,-0.00006987,-0.00002257,0.00000807,0.0000
 0569,0.00003299,-0.00000381,0.00034660,0.00022873,0.00001112,0.0000305
 2,-0.00003430,0.00000383,-0.00001490,0.00000190,-0.00003300,0.00004961
 ,-0.00000735,0.00011413,0.00010982,-0.00012179,-0.00000759,-0.00002140
 ,0.00001882,-0.00017751,0.00005837,-0.00012297,0.00067011,-0.00153057,
 0.00047555,0.00000245,0.00003127,-0.00001937,0.00171142,0.00230565,0.0
 0071710,-0.00007635,-0.00023397,-0.00014648,0.00000010,-0.00000619,0.0
 0000379,-0.00000957,-0.00000806,-0.00000170,-0.00000171,0.00001014,0.0
 0005437,-0.00000737,0.00000111,-0.00004088,-0.00000264,0.00000659,-0.0
 0001439,-0.00275956,0.00085473,0.00139869,0.00632352,-0.00137744,0.000
 47009,0.00002826,-0.00052535,-0.00011360,0.00002903,-0.00001192,-0.000
 03207,0.00000253,-0.00000499,0.00000346,-0.00001513,-0.00000363,0.0000
 0640,0.00024292,0.00016767,-0.00044567,-0.00003549,0.00001774,0.000049
 98,0.00002841,-0.00000421,0.00001824,-0.00013876,0.00002846,0.00008090
 ,0.00009084,-0.00004689,-0.00000140,0.00000954,0.00000160,0.00001106,-
 0.00001560,-0.00001474,0.00003429,0.00002767,-0.00002275,-0.00002543,-
 0.00000567,0.00001151,-0.00002146,0.00001704,-0.00000150,0.00001762,-0
 .00000509,0.00000316,-0.00000218,-0.00000860,0.00000042,0.00000023,-0.
 00000171,-0.00003044,0.00003184,0.00000793,0.00001289,-0.00004713,-0.0
 0001809,0.00001975,-0.00002855,0.00010709,-0.00001809,0.00002656,-0.00
 000834,0.00000881,-0.00000806,-0.00004247,0.00003433,-0.00001724,0.000
 10502,-0.00008731,-0.00004119,-0.00002775,0.00001821,0.00007873,-0.000
 04405,-0.00002810,0.00002461,-0.00021202,0.00008823,0.00017628,-0.0000
 4470,0.00026533,0.00002688,-0.00002936,0.00002359,-0.00005970,-0.03026
 628,0.00944110,-0.01929228,-0.00471971,0.00415482,0.00061459,0.0030930
 6,0.00110477,-0.00253943,-0.00423552,0.00020483,-0.00018020,-0.0000928
 0,0.00006941,-0.00007145,0.00011050,-0.00032187,-0.00010877,-0.0000968
 9,0.00022567,-0.00015304,0.00022373,0.00002260,-0.00001705,-0.00000393
 ,0.00002301,-0.00002126,0.03018133,-0.01479934,0.01920908,-0.00024208,
 0.00043465,-0.00055041,-0.00002930,0.00000518,-0.00000671,0.00030470,-
 0.00032991,0.00034799,0.00020172,0.00021957,-0.00005285,-0.00001481,0.
 00002004,0.00000656,-0.00081225,-0.00179769,0.00173641,0.00106381,0.00
 003507,0.00009545,0.00009423,0.00009926,-0.00010588,-0.00026086,0.0001
 0623,-0.00016465,0.00001750,-0.00000336,-0.00004166,0.00005617,0.00002
 035,-0.00003425,-0.00019206,0.00003225,0.00000209,0.00024678,-0.000103
 42,0.00027773,0.00001442,0.00000756,0.00002315,0.00008133,0.00000757,-
 0.00001764,0.00060869,0.00023805,-0.00016696,0.00004930,0.00000482,0.0
 0000218,-0.00427410,-0.00361330,0.00336269,0.00527713,0.00185017,0.003
 69891,0.00118350,-0.00293131,0.00050747,-0.00002550,-0.00022767,0.0000
 9309,-0.00008550,0.00002926,0.00004620,-0.00007618,-0.00008599,-0.0000
 0396,0.00003189,-0.00004975,0.00004324,-0.00001958,-0.00002546,-0.0000
 0208,-0.00002865,0.00006276,-0.00006407,-0.00010890,-0.00006162,0.0001
 0973,0.00002800,0.00000889,-0.00002548,-0.00002558,-0.00000058,0.,0.00
 012926,-0.00000954,-0.00012648,-0.00007925,0.00004482,0.00002709,-0.00
 001597,0.00000518,-0.00001476,0.00001401,0.00012724,-0.00014944,-0.000
 02652,0.00001786,0.00004092,0.00005948,-0.00008783,0.00009804,-0.00014
 969,0.00020249,-0.00002189,-0.00007027,-0.00014816,-0.00009313,0.00023
 955,0.00001509,-0.00014249,0.00005862,0.00034826,0.00047795,0.00020470
 ,-0.00040498,0.00036989,0.00012052,-0.00014649,0.00018901,-0.17401596,
 -0.05375312,0.11089929,-0.00052474,-0.00158242,-0.00197016,-0.00111541
 ,0.00312349,-0.00031340,-0.00618861,0.00203930,-0.00148433,0.00033141,
 -0.00042638,0.00018080,-0.00012504,0.00183489,-0.00361842,-0.00009164,
 0.00004233,0.00029619,0.00002846,0.00002486,-0.00000489,0.00018265,0.0
 0007299,-0.00019850,0.00021183,0.00005545,-0.00001881,-0.00000792,-0.0
 0001709,-0.00002028,-0.00011579,0.00003196,-0.00000789,0.00010748,-0.0
 0010603,0.00004629,0.00003362,0.00000655,-0.00002810,0.00000418,0.0000
 6930,-0.00001008,0.00015552,-0.00002498,-0.00000363,-0.00017134,-0.000
 01945,0.00000160,0.00003662,-0.00014203,0.00013421,-0.00018917,0.00005
 621,-0.00004079,0.17790557,0.00001207,0.00009981,-0.00010665,-0.000007
 86,-0.00003267,0.00004221,-0.00010612,0.00026689,0.00018281,0.00006167
 ,0.00005595,0.00005622,0.00001033,-0.00000866,0.00001233,-0.00135065,0
 .00060691,-0.00007077,-0.00037207,-0.00068559,0.00016801,-0.00003941,-
 0.00016958,-0.00000743,-0.00010189,0.00001541,0.00000240,0.00003403,0.
 00000529,-0.00001703,0.00000171,-0.00001201,0.00001288,0.00000439,0.00
 000678,-0.00001526,-0.00009699,0.00009881,-0.00014627,0.00000704,0.000
 00130,0.00000559,0.00001132,0.00000256,0.00000819,0.00013347,-0.000109
 99,0.00009456,0.00000696,0.00000690,-0.00000150,-0.00023851,0.00251835
 ,0.00055702,0.00246547,0.00024704,0.00404189,-0.00219287,0.00040042,-0
 .00000836,-0.00007632,-0.00007515,-0.00002667,0.00001936,0.00000523,0.
 00000045,-0.00007385,-0.00006636,-0.00002470,-0.00008438,-0.00002954,0
 .00004280,-0.00002937,0.00005682,-0.00001513,0.00000613,0.00000919,0.0
 0001045,-0.00002251,0.00007039,-0.00007450,0.00001281,-0.00000642,-0.0
 0000999,-0.00000316,-0.00001397,0.00001065,0.00011176,-0.00006336,0.00
 003900,-0.00004985,0.00001966,-0.00000684,-0.00000922,0.00000332,0.000
 01190,0.00011666,-0.00000088,-0.00009575,-0.00006143,0.00003897,-0.000
 00183,0.00000885,-0.00003675,0.00004884,-0.00011668,-0.00001283,-0.000
 04518,0.00005892,0.00002991,0.00002767,-0.00003719,-0.00011184,0.00002
 853,0.00019326,0.00007245,-0.00007518,-0.00018560,-0.00018454,0.000493
 44,0.00001912,-0.00006401,0.00007601,-0.05396691,-0.03286546,0.0333326
 6,-0.00076943,0.00011131,0.00114432,-0.00089943,0.00376073,-0.00049969
 ,0.00039281,-0.00124084,0.00186680,0.00004051,-0.00039649,-0.00038716,
 0.00222043,0.00038602,-0.00052109,0.00001933,0.00006695,0.00008929,0.0
 0005674,-0.00000350,-0.00003827,0.00009889,0.00002760,-0.00013281,0.00
 001666,-0.00002793,0.00006468,-0.00000793,0.00000472,-0.00000164,-0.00
 003486,0.00000325,0.00000423,0.00005612,0.00001901,-0.00003863,-0.0000
 0236,-0.00001288,0.00000065,-0.00000291,-0.00000912,0.00001141,0.00004
 505,0.00001052,0.00002408,-0.00005281,-0.00000683,-0.00000222,-0.00000
 435,-0.00003928,0.00004504,-0.00004349,0.00001472,-0.00001451,0.054798
 56,0.02724330,0.00005502,-0.00014722,0.00027687,0.00000916,0.00001362,
 -0.00002640,-0.00025289,-0.00047308,-0.00041487,-0.00014450,-0.0001337
 1,-0.00017087,-0.00001865,0.00003232,-0.00003778,0.00221128,0.00045802
 ,0.00063155,-0.00031759,0.00029968,0.00015085,0.00010887,0.00008377,0.
 00001390,0.00022534,-0.00001244,0.00000948,-0.00008097,-0.00006452,0.0
 0002469,-0.00001140,0.00001607,-0.00000593,0.00004326,-0.00001321,0.00
 001817,0.00027313,0.00011612,-0.00004038,-0.00000415,0.00000734,-0.000
 02223,-0.00003230,0.00000271,-0.00000515,-0.00005323,-0.00014395,0.000
 02560,-0.00003014,-0.00000950,-0.00001752,0.00024438,-0.00130290,0.000
 62829,0.00527569,0.00090913,-0.00990894,-0.00030876,0.00229795,0.00047
 834,0.00008016,0.00007553,-0.00006513,-0.00000171,-0.00002555,-0.00001
 554,-0.00000754,0.00002357,0.00003587,0.00012436,0.00002607,-0.0000532
 7,0.00004136,-0.00006362,0.00002535,-0.00001814,-0.00002948,0.00001397
 ,0.00004808,-0.00009218,0.00006518,-0.00003029,0.00000596,0.00002003,0
 .00001167,0.00002257,-0.00001448,-0.00020004,0.00008149,-0.00000321,0.
 00009385,-0.00004046,0.00000169,0.00001205,0.00000240,-0.00001215,-0.0
 0012678,-0.00004499,0.00016391,0.00008152,-0.00004882,-0.00001057,-0.0
 0002199,0.00005741,-0.00009598,0.00009800,0.00000569,0.00005043,0.0000
 0004,-0.00001675,0.00003610,-0.00008705,0.00002276,0.00001184,-0.00017
 338,-0.00006964,0.00010268,-0.00007523,-0.00008579,-0.00080136,-0.0000
 7319,0.00008891,-0.00015826,0.10504061,0.03934028,-0.08644859,0.002375
 45,0.00095703,0.00219588,0.00237372,-0.00274576,-0.00038533,0.00034127
 ,0.00085708,-0.00307019,0.00010281,0.00039837,0.00041473,-0.00344481,-
 0.00044355,0.00173990,0.00005407,0.00004970,-0.00005925,0.00000765,-0.
 00007947,-0.00002721,-0.00020937,-0.00009384,0.00017874,-0.00010006,0.
 00003358,-0.00006138,0.00001131,-0.00000201,0.00000493,0.00008023,-0.0
 0001257,-0.00000501,-0.00010241,0.00000482,0.00004348,-0.00000770,0.00
 001592,0.00000311,0.00000374,-0.00000317,-0.00001362,-0.00010269,-0.00
 001076,-0.00003340,0.00011810,0.00001421,0.00000309,-0.00000754,0.0000
 9284,-0.00009441,0.00010839,-0.00003201,0.00002530,-0.11361009,-0.0401
 7195,0.09468445\\-0.00001279,0.00000711,-0.00000350,0.00000393,0.00001
 018,-0.00000139,-0.00000096,0.00000055,0.00001479,0.00000710,-0.000004
 74,0.00000093,0.00001438,-0.00000557,-0.00000768,0.00000406,0.00001286
 ,-0.00000339,-0.00000048,-0.00000133,0.00000118,0.00000797,-0.00000575
 ,-0.00000086,-0.00001096,-0.00000060,0.00000288,0.00000479,0.00000437,
 0.00000404,0.00000523,-0.00000477,0.00000178,0.00000321,0.00004242,-0.
 00001880,-0.00001606,0.00000255,-0.00001740,0.00000355,-0.00002155,0.0
 0000625,-0.00000337,-0.00000031,-0.00000854,0.00000264,-0.00000613,-0.
 00000629,0.00000856,0.00000400,0.00000002,0.00000239,0.00000800,0.0000
 3785,-0.00000846,0.00000045,0.00000361,0.00000957,-0.00000619,0.000004
 06,-0.00008078,-0.00004764,-0.00000945,0.00001532,0.00000537,-0.000000
 50,0.00003141,0.00001607,0.00000525,-0.00000849,0.00000183,-0.00001007
 ,0.00000607,-0.00000681,0.00000318,0.00000743,0.00000073,0.00000497,0.
 00001256,0.00002538,-0.00000521,-0.00000976,0.00000877,0.00000265,-0.0
 0000228,-0.00000354,-0.00000025,0.00003139,-0.00003170,-0.00000399,0.0
 0000184,0.00001804,-0.00001148,-0.00000029,-0.00000703,-0.00000085,-0.
 00002394,0.00001423,0.00000199,-0.00000720,-0.00000026,0.00000722,0.00
 000256,0.00000038,-0.00000082,-0.00000096,-0.00000520,-0.00000073,-0.0
 0000156,-0.00000312,0.00000047,0.00000511,-0.00000144,0.00000142,-0.00
 000788,0.00000916,0.00000250,0.00001214,-0.00001163,-0.00001471,0.0000
 0020,0.00000098,-0.00000235,-0.00000690,0.00001276,-0.00003350,0.00000
 398,-0.00001240,0.00000499,-0.00001289,-0.00000383,0.00000987,0.000009
 87,-0.00000477,0.00000701,-0.00000239,-0.00000727,-0.00001232,-0.00000
 049,0.00001151,0.00000041,0.00002828,-0.00001042,-0.00000338,-0.000011
 24,0.00001862,0.00001198,-0.00001271,-0.00000335,-0.00000251,0.0000358
 5,0.00000256,0.00002703,-0.00001934,0.00001263,0.00001455,-0.00000218,
 0.00000187,0.00000633,0.00001756,-0.00000310,-0.00001428,0.00000853,0.
 00000595,-0.00000113,-0.00001431,-0.00001546,0.00000022,-0.00003223,-0
 .00000901,0.00002786,0.00000355,-0.00000173,-0.00000933,0.00000622,-0.
 00000238,-0.00000518,-0.00000719,-0.00000259,-0.00000683,0.00000084,-0
 .00000771,-0.00000060\\\@
 The archive entry for this job was punched.


 Discoveries are often made by not following instructions,
 by going off the main road, by trying the untried.
 -- Frank Tyger
 Job cpu time:       5 days  4 hours 10 minutes 18.4 seconds.
 Elapsed time:       0 days  2 hours 42 minutes 31.9 seconds.
 File lengths (MBytes):  RWF=  12140 Int=      0 D2E=      0 Chk=    127 Scr=      2
 Normal termination of Gaussian 16 at Wed Feb 15 01:58:35 2023.
