       N       E                     dE             d eps       ncg     rms          rms(c)
DAV:   1     0.461778258817E+02    0.46178E+02   -0.98410E+02    96   0.154E+02
DAV:   2     0.244632865479E+01   -0.43731E+02   -0.40825E+02    96   0.415E+01
DAV:   3    -0.786503349251E+01   -0.10311E+02   -0.10311E+02    64   0.240E+01
DAV:   4    -0.833333095428E+01   -0.46830E+00   -0.46830E+00    96   0.620E+00
DAV:   5    -0.833757802480E+01   -0.42471E-02   -0.42471E-02   112   0.445E-01    0.122E+01
DAV:   6    -0.256927537273E+01    0.57683E+01   -0.19327E+01    96   0.126E+01    0.103E+01
DAV:   7    -0.597163446927E+01   -0.34024E+01   -0.17418E+00   112   0.425E+00    0.636E+00
DAV:   8    -0.945236619303E+01   -0.34807E+01   -0.26265E+00    96   0.416E+00    0.167E+00
DAV:   9    -0.100978757204E+02   -0.64551E+00   -0.17928E-01    96   0.151E+00    0.105E+00
DAV:  10    -0.103271468386E+02   -0.22927E+00   -0.23584E-02    64   0.505E-01    0.539E-01
DAV:  11    -0.104956593316E+02   -0.16851E+00   -0.18443E-02    64   0.394E-01    0.428E-01
DAV:  12    -0.106440283477E+02   -0.14837E+00   -0.18179E-02    80   0.420E-01    0.287E-01
DAV:  13    -0.108017214728E+02   -0.15769E+00   -0.36999E-02    96   0.516E-01    0.192E-01
DAV:  14    -0.109364521630E+02   -0.13473E+00   -0.13207E-02   128   0.304E-01    0.160E-01
DAV:  15    -0.110683174271E+02   -0.13187E+00   -0.80391E-03    96   0.196E-01    0.973E-02
DAV:  16    -0.111309790027E+02   -0.62662E-01   -0.13011E-03   112   0.103E-01    0.927E-02
DAV:  17    -0.111478107238E+02   -0.16832E-01   -0.10579E-04    96   0.323E-02    0.705E-02
DAV:  18    -0.111827074732E+02   -0.34897E-01   -0.51397E-04   112   0.581E-02    0.491E-02
DAV:  19    -0.111897113167E+02   -0.70038E-02   -0.48169E-05   128   0.202E-02    0.395E-02
DAV:  20    -0.111943872691E+02   -0.46760E-02   -0.92888E-05    80   0.267E-02    0.292E-02
DAV:  21    -0.111970262433E+02   -0.26390E-02   -0.22754E-05   128   0.149E-02    0.206E-02
DAV:  22    -0.111988156401E+02   -0.17894E-02   -0.31305E-05   112   0.157E-02    0.148E-02
DAV:  23    -0.111986122469E+02    0.20339E-03   -0.49715E-05    96   0.166E-02    0.101E-02
DAV:  24    -0.111990829306E+02   -0.47068E-03   -0.24167E-05    96   0.180E-02    0.636E-03
DAV:  25    -0.111994791898E+02   -0.39626E-03   -0.14604E-05    64   0.114E-02    0.365E-03
DAV:  26    -0.112001167426E+02   -0.63755E-03   -0.17226E-06   112   0.518E-03    0.236E-03
DAV:  27    -0.112009106374E+02   -0.79389E-03   -0.26615E-06    80   0.416E-03    0.175E-03
DAV:  28    -0.112014652609E+02   -0.55462E-03   -0.12948E-06    96   0.271E-03    0.127E-03
DAV:  29    -0.112017488136E+02   -0.28355E-03   -0.74040E-07    80   0.224E-03    0.634E-04
DAV:  30    -0.112019193966E+02   -0.17058E-03   -0.21522E-07    64   0.165E-03    0.607E-04
DAV:  31    -0.112019926231E+02   -0.73227E-04   -0.95275E-08    80   0.119E-03    0.308E-04
DAV:  32    -0.112020296880E+02   -0.37065E-04   -0.33570E-08    96   0.649E-04    0.115E-04
DAV:  33    -0.112020495148E+02   -0.19827E-04   -0.13963E-08   128   0.473E-04    0.126E-04
DAV:  34    -0.112020551642E+02   -0.56493E-05   -0.11091E-09    96   0.246E-04
   1 F= -.11223865E+02 E0= -.11223865E+02  d E =-.112239E+02  mag=     0.0000
