       N       E                     dE             d eps       ncg     rms          rms(c)
DAV:   1     0.764844164486E+01    0.76484E+01   -0.12418E+02   192   0.852E+00
DAV:   2    -0.399738396916E+00   -0.80482E+01   -0.80482E+01   240   0.295E+00
DAV:   3    -0.220769652816E+01   -0.18080E+01   -0.18080E+01   240   0.204E+00
DAV:   4    -0.223817876916E+01   -0.30482E-01   -0.30482E-01   240   0.330E-01
DAV:   5    -0.223835410461E+01   -0.17534E-03   -0.17534E-03   384   0.260E-02    0.962E-01
DAV:   6     0.108131033866E+00    0.23465E+01   -0.21233E-03   288   0.271E-02    0.538E-01
DAV:   7    -0.129948373028E+01   -0.14076E+01   -0.84860E-04   288   0.178E-02    0.276E-01
DAV:   8    -0.210824527387E+01   -0.80876E+00   -0.22659E-03   240   0.192E-02    0.434E-02
DAV:   9    -0.211723804202E+01   -0.89928E-02   -0.28546E-04   288   0.714E-03    0.200E-02
DAV:  10    -0.217565297720E+01   -0.58415E-01   -0.19548E-05   240   0.255E-03    0.105E-02
DAV:  11    -0.221684723171E+01   -0.41194E-01   -0.30505E-05   192   0.371E-03    0.455E-03
DAV:  12    -0.221747719957E+01   -0.62997E-03   -0.38422E-05   192   0.490E-03    0.314E-03
DAV:  13    -0.222201179653E+01   -0.45346E-02   -0.11672E-05   192   0.306E-03    0.178E-03
DAV:  14    -0.222364551864E+01   -0.16337E-02   -0.10141E-05   240   0.157E-03    0.977E-04
DAV:  15    -0.222529603623E+01   -0.16505E-02   -0.13863E-06   240   0.594E-04    0.717E-04
DAV:  16    -0.222546697435E+01   -0.17094E-03   -0.20890E-06   192   0.540E-04    0.455E-04
DAV:  17    -0.222629899386E+01   -0.83202E-03   -0.17473E-06   192   0.477E-04    0.251E-04
DAV:  18    -0.222628130833E+01    0.17686E-04   -0.40062E-07   192   0.242E-04    0.170E-04
DAV:  19    -0.222644803804E+01   -0.16673E-03   -0.31172E-07   240   0.223E-04    0.104E-04
DAV:  20    -0.222649883395E+01   -0.50796E-04   -0.11184E-07   288   0.134E-04    0.653E-05
DAV:  21    -0.222654681886E+01   -0.47985E-04   -0.27929E-08   192   0.710E-05    0.471E-05
DAV:  22    -0.222658230129E+01   -0.35482E-04   -0.14378E-08   240   0.558E-05    0.401E-05
DAV:  23    -0.222657708982E+01    0.52115E-05   -0.76565E-10   288   0.225E-05
   1 F= -.22294593E+01 E0= -.22294593E+01  d E =-.222946E+01  mag=     2.0000
       N       E                     dE             d eps       ncg     rms          rms(c)
DAV:   1    -0.222659432078E+01   -0.12019E-04   -0.15143E-11   240   0.179E-05    0.301E-05
DAV:   2    -0.222660261793E+01   -0.82972E-05    0.73260E-10   288   0.847E-06
   2 F= -.22294848E+01 E0= -.22294848E+01  d E =-.255281E-04  mag=     2.0000
       N       E                     dE             d eps       ncg     rms          rms(c)
DAV:   1    -0.222660366292E+01   -0.93421E-05    0.85643E-10   240   0.475E-06    0.298E-05
DAV:   2    -0.222660144479E+01    0.22181E-05    0.83054E-10   288   0.466E-06
   3 F= -.22294836E+01 E0= -.22294836E+01  d E =0.117314E-05  mag=     2.0000
       N       E                     dE             d eps       ncg     rms          rms(c)
DAV:   1    -0.222660709500E+01   -0.34321E-05    0.64680E-10   192   0.104E-05    0.292E-05
DAV:   2    -0.222660056736E+01    0.65276E-05    0.69214E-10   288   0.412E-06
   4 F= -.22294827E+01 E0= -.22294827E+01  d E =0.877424E-06  mag=     2.0000
       N       E                     dE             d eps       ncg     rms          rms(c)
DAV:   1    -0.222661267628E+01   -0.55813E-05    0.59725E-10   240   0.425E-06    0.281E-05
DAV:   2    -0.222660954801E+01    0.31283E-05    0.54671E-10   336   0.350E-06
   5 F= -.22294917E+01 E0= -.22294917E+01  d E =-.898065E-05  mag=     2.0000
       N       E                     dE             d eps       ncg     rms          rms(c)
DAV:   1    -0.222660855027E+01    0.41260E-05    0.52990E-10   240   0.189E-06    0.282E-05
DAV:   2    -0.222660801601E+01    0.53426E-06    0.45648E-10   336   0.227E-06
   6 F= -.22294902E+01 E0= -.22294902E+01  d E =0.153200E-05  mag=     2.0000
       N       E                     dE             d eps       ncg     rms          rms(c)
DAV:   1    -0.222661171668E+01   -0.31664E-05    0.31305E-10   288   0.510E-06    0.281E-05
DAV:   2    -0.222661064040E+01    0.10763E-05    0.22934E-10   240   0.230E-06
   7 F= -.22294928E+01 E0= -.22294928E+01  d E =-.262439E-05  mag=     2.0000
