       N       E                     dE             d eps       ncg     rms          rms(c)
DAV:   1     0.193068761665E+05    0.19307E+05   -0.81362E+05  6336   0.103E+03
DAV:   2     0.131304077614E+03   -0.19176E+05   -0.18374E+05  8448   0.269E+02
DAV:   3    -0.312464030847E+04   -0.32559E+04   -0.32354E+04  7488   0.118E+02
DAV:   4    -0.321180237396E+04   -0.87162E+02   -0.86824E+02  7872   0.222E+01
DAV:   5    -0.321347250789E+04   -0.16701E+01   -0.16671E+01  8064   0.287E+00    0.201E+02
DAV:   6    -0.159943970693E+04    0.16140E+04   -0.31651E+03  7296   0.423E+01    0.913E+01
DAV:   7    -0.172499043065E+04   -0.12555E+03   -0.39168E+02  7872   0.141E+01    0.645E+01
DAV:   8    -0.173712173676E+04   -0.12131E+02   -0.12450E+02  7776   0.615E+00    0.468E+01
DAV:   9    -0.185518446577E+04   -0.11806E+03   -0.93812E+01  8064   0.616E+00    0.400E+01
DAV:  10    -0.199718275146E+04   -0.14200E+03   -0.10098E+02  7968   0.573E+00    0.342E+01
DAV:  11    -0.219841625784E+04   -0.20123E+03   -0.92283E+01  7872   0.622E+00    0.292E+01
DAV:  12    -0.239929076034E+04   -0.20087E+03   -0.79898E+01  7776   0.627E+00    0.248E+01
DAV:  13    -0.268612052134E+04   -0.28683E+03   -0.18209E+02  7488   0.888E+00    0.196E+01
DAV:  14    -0.285274839101E+04   -0.16663E+03   -0.11241E+02  7488   0.640E+00    0.147E+01
DAV:  15    -0.295848954745E+04   -0.10574E+03   -0.80813E+01  7680   0.501E+00    0.112E+01
DAV:  16    -0.298654805303E+04   -0.28059E+02   -0.13640E+01  7584   0.229E+00    0.941E+00
DAV:  17    -0.300171983178E+04   -0.15172E+02   -0.54430E+00  7488   0.140E+00    0.797E+00
DAV:  18    -0.301335055649E+04   -0.11631E+02   -0.42502E+00  7392   0.124E+00    0.679E+00
DAV:  19    -0.301948725707E+04   -0.61367E+01   -0.20656E+00  7680   0.865E-01    0.560E+00
DAV:  20    -0.302549889408E+04   -0.60116E+01   -0.16085E+00  7008   0.816E-01    0.431E+00
DAV:  21    -0.303021252433E+04   -0.47136E+01   -0.16107E+00  7392   0.722E-01    0.317E+00
DAV:  22    -0.303323342871E+04   -0.30209E+01   -0.68794E-01  6816   0.479E-01    0.232E+00
DAV:  23    -0.303450594241E+04   -0.12725E+01   -0.31192E-01  7008   0.355E-01    0.146E+00
DAV:  24    -0.303563051370E+04   -0.11246E+01   -0.13480E-01  7200   0.286E-01    0.885E-01
DAV:  25    -0.303677424852E+04   -0.11437E+01   -0.39166E-02  7488   0.175E-01    0.640E-01
DAV:  26    -0.303778039591E+04   -0.10061E+01   -0.21754E-02  7296   0.114E-01    0.459E-01
DAV:  27    -0.303915793366E+04   -0.13775E+01   -0.28756E-02  7008   0.132E-01    0.259E-01
DAV:  28    -0.303987366865E+04   -0.71573E+00   -0.14113E-02  7488   0.104E-01    0.147E-01
DAV:  29    -0.304004643078E+04   -0.17276E+00   -0.22381E-03  7584   0.426E-02    0.109E-01
DAV:  30    -0.304014069730E+04   -0.94267E-01   -0.96312E-04  7584   0.258E-02    0.617E-02
DAV:  31    -0.304019256463E+04   -0.51867E-01   -0.89091E-04  7488   0.258E-02    0.374E-02
DAV:  32    -0.304019902538E+04   -0.64607E-02   -0.17196E-04  7776   0.118E-02    0.272E-02
DAV:  33    -0.304020352386E+04   -0.44985E-02   -0.40561E-05  7104   0.550E-03    0.183E-02
DAV:  34    -0.304020792062E+04   -0.43968E-02   -0.39601E-05  6912   0.529E-03    0.123E-02
DAV:  35    -0.304021101371E+04   -0.30931E-02   -0.24558E-05  6624   0.463E-03    0.911E-03
DAV:  36    -0.304021329676E+04   -0.22830E-02   -0.14038E-05  6336   0.363E-03    0.670E-03
DAV:  37    -0.304021493338E+04   -0.16366E-02   -0.64913E-06  5664   0.251E-03    0.479E-03
DAV:  38    -0.304021611716E+04   -0.11838E-02   -0.60309E-06  5856   0.210E-03    0.361E-03
DAV:  39    -0.304021644058E+04   -0.32342E-03    0.82793E-07  5952   0.106E-03    0.315E-03
DAV:  40    -0.304021657029E+04   -0.12971E-03    0.19991E-06  5664   0.683E-04    0.272E-03
DAV:  41    -0.304021669870E+04   -0.12840E-03    0.18377E-06  5376   0.764E-04    0.253E-03
DAV:  42    -0.304021674197E+04   -0.43275E-04    0.23331E-06  5856   0.478E-04    0.247E-03
DAV:  43    -0.304021675788E+04   -0.15905E-04    0.25819E-06  5568   0.281E-04    0.239E-03
DAV:  44    -0.304021677236E+04   -0.14484E-04    0.25986E-06  5664   0.243E-04    0.236E-03
DAV:  45    -0.304021677868E+04   -0.63247E-05    0.26796E-06  5664   0.190E-04
   1 F= -.30808788E+04 E0= -.30808788E+04  d E =-.308088E+04  mag=    -0.0000
       N       E                     dE             d eps       ncg     rms          rms(c)
DAV:   1    -0.304021683834E+04   -0.65983E-04   -0.72360E-02  6240   0.102E-01    0.742E-02
DAV:   2    -0.304021682974E+04    0.85994E-05   -0.33303E-04  6912   0.885E-03    0.472E-02
DAV:   3    -0.304021681989E+04    0.98573E-05   -0.11664E-04  6912   0.448E-03    0.274E-02
DAV:   4    -0.304021681682E+04    0.30629E-05   -0.14442E-04  7104   0.448E-03    0.244E-02
DAV:   5    -0.304021680968E+04    0.71470E-05   -0.60337E-05  6816   0.291E-03
   2 F= -.30808786E+04 E0= -.30808786E+04  d E =0.265754E-03  mag=    -0.0000
       N       E                     dE             d eps       ncg     rms          rms(c)
DAV:   1    -0.304021635498E+04    0.46184E-03   -0.14600E-01  6144   0.145E-01    0.105E-01
DAV:   2    -0.304021633161E+04    0.23366E-04   -0.65531E-04  6912   0.122E-02    0.641E-02
DAV:   3    -0.304021631607E+04    0.15543E-04   -0.27560E-04  7008   0.596E-03    0.423E-02
DAV:   4    -0.304021630950E+04    0.65733E-05   -0.39325E-04  6912   0.663E-03    0.361E-02
DAV:   5    -0.304021629150E+04    0.18000E-04   -0.14587E-04  6528   0.426E-03    0.129E-02
DAV:   6    -0.304021629038E+04    0.11205E-05   -0.76597E-06  6144   0.152E-03
   3 F= -.30808786E+04 E0= -.30808786E+04  d E =0.105885E-04  mag=    -0.0000
       N       E                     dE             d eps       ncg     rms          rms(c)
DAV:   1    -0.304021672240E+04   -0.43090E-03   -0.14162E-01  6144   0.145E-01    0.106E-01
DAV:   2    -0.304021670111E+04    0.21284E-04   -0.60822E-04  6720   0.120E-02    0.576E-02
DAV:   3    -0.304021668541E+04    0.15703E-04   -0.23222E-04  6624   0.619E-03    0.420E-02
DAV:   4    -0.304021667174E+04    0.13672E-04   -0.24619E-04  6720   0.598E-03    0.271E-02
DAV:   5    -0.304021666343E+04    0.83064E-05   -0.89828E-05  6720   0.345E-03
   4 F= -.30808785E+04 E0= -.30808785E+04  d E =0.516318E-04  mag=    -0.0000
       N       E                     dE             d eps       ncg     rms          rms(c)
DAV:   1    -0.304021660641E+04    0.65330E-04   -0.14645E-01  6336   0.145E-01    0.117E-01
DAV:   2    -0.304021658963E+04    0.16783E-04   -0.97320E-04  7104   0.152E-02    0.676E-02
DAV:   3    -0.304021656748E+04    0.22143E-04   -0.50526E-04  6816   0.101E-02    0.532E-02
DAV:   4    -0.304021653595E+04    0.31531E-04   -0.24442E-04  6720   0.642E-03    0.255E-02
DAV:   5    -0.304021653263E+04    0.33188E-05   -0.10856E-04  6912   0.404E-03    0.209E-02
DAV:   6    -0.304021652687E+04    0.57626E-05   -0.36016E-05  6144   0.243E-03
   5 F= -.30808786E+04 E0= -.30808786E+04  d E =-.877182E-04  mag=    -0.0000
       N       E                     dE             d eps       ncg     rms          rms(c)
DAV:   1    -0.304021633111E+04    0.20153E-03   -0.14313E-01  6336   0.134E-01    0.988E-02
DAV:   2    -0.304021632022E+04    0.10882E-04   -0.86102E-04  7104   0.140E-02    0.671E-02
DAV:   3    -0.304021630194E+04    0.18286E-04   -0.48869E-04  6912   0.898E-03    0.438E-02
DAV:   4    -0.304021627945E+04    0.22491E-04   -0.29307E-04  6912   0.653E-03    0.275E-02
DAV:   5    -0.304021627344E+04    0.60041E-05   -0.99521E-05  6720   0.380E-03
   6 F= -.30808786E+04 E0= -.30808786E+04  d E =-.261154E-04  mag=    -0.0000
       N       E                     dE             d eps       ncg     rms          rms(c)
DAV:   1    -0.304021670760E+04   -0.42815E-03   -0.14443E-01  6336   0.134E-01    0.992E-02
DAV:   2    -0.304021668243E+04    0.25165E-04   -0.51609E-04  6912   0.119E-02    0.459E-02
DAV:   3    -0.304021666043E+04    0.22005E-04   -0.79547E-05  7296   0.454E-03    0.298E-02
DAV:   4    -0.304021665410E+04    0.63301E-05   -0.96064E-05  6912   0.463E-03
   7 F= -.30808786E+04 E0= -.30808786E+04  d E =0.645322E-04  mag=    -0.0000
       N       E                     dE             d eps       ncg     rms          rms(c)
DAV:   1    -0.304021658578E+04    0.74646E-04   -0.14390E-01  6336   0.138E-01    0.114E-01
DAV:   2    -0.304021661433E+04   -0.28549E-04   -0.13814E-03  7296   0.166E-02    0.801E-02
DAV:   3    -0.304021658033E+04    0.34000E-04   -0.99772E-04  7296   0.124E-02    0.542E-02
DAV:   4    -0.304021654073E+04    0.39600E-04   -0.35760E-04  6720   0.681E-03    0.256E-02
DAV:   5    -0.304021653636E+04    0.43729E-05   -0.84394E-05  6912   0.380E-03
   8 F= -.30808786E+04 E0= -.30808786E+04  d E =-.875164E-04  mag=    -0.0000
       N       E                     dE             d eps       ncg     rms          rms(c)
DAV:   1    -0.304021682110E+04   -0.28037E-03   -0.14235E-01  6144   0.132E-01    0.104E-01
DAV:   2    -0.304021682612E+04   -0.50190E-05   -0.10366E-03  7104   0.148E-02    0.770E-02
DAV:   3    -0.304021679520E+04    0.30917E-04   -0.61500E-04  6912   0.986E-03    0.508E-02
DAV:   4    -0.304021676940E+04    0.25804E-04   -0.32030E-04  6720   0.649E-03    0.283E-02
DAV:   5    -0.304021676202E+04    0.73817E-05   -0.11853E-04  6528   0.397E-03    0.208E-02
DAV:   6    -0.304021675726E+04    0.47578E-05   -0.20759E-05  6336   0.208E-03
   9 F= -.30808786E+04 E0= -.30808786E+04  d E =0.999210E-05  mag=    -0.0000
       N       E                     dE             d eps       ncg     rms          rms(c)
DAV:   1    -0.304021679147E+04   -0.29456E-04   -0.14090E-01  6144   0.132E-01    0.930E-02
DAV:   2    -0.304021678008E+04    0.11391E-04   -0.49509E-04  6528   0.104E-02    0.402E-02
DAV:   3    -0.304021676378E+04    0.16302E-04   -0.57469E-05  6912   0.328E-03    0.274E-02
DAV:   4    -0.304021676134E+04    0.24427E-05   -0.86228E-05  6720   0.375E-03
  10 F= -.30808786E+04 E0= -.30808786E+04  d E =0.700820E-04  mag=    -0.0000
       N       E                     dE             d eps       ncg     rms          rms(c)
DAV:   1    -0.304021673788E+04    0.25900E-04   -0.14438E-01  6144   0.143E-01    0.119E-01
DAV:   2    -0.304021671304E+04    0.24835E-04   -0.76367E-04  6720   0.128E-02    0.648E-02
DAV:   3    -0.304021669203E+04    0.21019E-04   -0.18596E-04  6720   0.577E-03    0.432E-02
DAV:   4    -0.304021668738E+04    0.46485E-05   -0.27230E-04  6720   0.635E-03    0.363E-02
DAV:   5    -0.304021667135E+04    0.16024E-04   -0.15035E-04  6720   0.451E-03    0.139E-02
DAV:   6    -0.304021666964E+04    0.17126E-05   -0.21753E-05  6336   0.189E-03
  11 F= -.30808785E+04 E0= -.30808785E+04  d E =0.715363E-04  mag=    -0.0000
       N       E                     dE             d eps       ncg     rms          rms(c)
DAV:   1    -0.304021690032E+04   -0.22897E-03   -0.14432E-01  6144   0.141E-01    0.124E-01
DAV:   2    -0.304021687144E+04    0.28886E-04   -0.77736E-04  6528   0.130E-02    0.807E-02
DAV:   3    -0.304021684865E+04    0.22787E-04   -0.29436E-04  6912   0.748E-03    0.499E-02
DAV:   4    -0.304021683113E+04    0.17514E-04   -0.24089E-04  6912   0.676E-03    0.367E-02
DAV:   5    -0.304021681768E+04    0.13458E-04   -0.64928E-05  6720   0.366E-03    0.103E-02
DAV:   6    -0.304021681762E+04    0.60769E-07   -0.13738E-06  5952   0.105E-03
  12 F= -.30808785E+04 E0= -.30808785E+04  d E =0.260748E-05  mag=    -0.0000
       N       E                     dE             d eps       ncg     rms          rms(c)
DAV:   1    -0.304021685024E+04   -0.32562E-04   -0.14355E-01  6144   0.141E-01    0.129E-01
DAV:   2    -0.304021680409E+04    0.46144E-04   -0.89688E-04  6720   0.140E-02    0.970E-02
DAV:   3    -0.304021676970E+04    0.34399E-04   -0.33037E-04  6912   0.822E-03    0.510E-02
DAV:   4    -0.304021675385E+04    0.15848E-04   -0.27785E-04  6720   0.763E-03    0.461E-02
DAV:   5    -0.304021673338E+04    0.20469E-04   -0.93815E-05  6912   0.466E-03    0.124E-02
DAV:   6    -0.304021673320E+04    0.17736E-06   -0.26176E-06  6144   0.124E-03
  13 F= -.30808785E+04 E0= -.30808785E+04  d E =-.441824E-04  mag=    -0.0000
       N       E                     dE             d eps       ncg     rms          rms(c)
DAV:   1    -0.304021628513E+04    0.44825E-03   -0.14183E-01  6336   0.143E-01    0.115E-01
DAV:   2    -0.304021627695E+04    0.81855E-05   -0.71965E-04  6528   0.130E-02    0.727E-02
DAV:   3    -0.304021625976E+04    0.17185E-04   -0.18378E-04  6912   0.633E-03    0.416E-02
DAV:   4    -0.304021625620E+04    0.35641E-05   -0.23842E-04  6528   0.678E-03    0.388E-02
DAV:   5    -0.304021624239E+04    0.13804E-04   -0.12020E-04  6720   0.448E-03    0.135E-02
DAV:   6    -0.304021624065E+04    0.17440E-05   -0.13691E-05  6144   0.166E-03
  14 F= -.30808786E+04 E0= -.30808786E+04  d E =-.596022E-04  mag=    -0.0000
       N       E                     dE             d eps       ncg     rms          rms(c)
DAV:   1    -0.304021659837E+04   -0.35598E-03   -0.14111E-01  6336   0.135E-01    0.114E-01
DAV:   2    -0.304021659030E+04    0.80690E-05   -0.77052E-04  6528   0.144E-02    0.800E-02
DAV:   3    -0.304021657029E+04    0.20010E-04   -0.30754E-04  6528   0.790E-03    0.433E-02
DAV:   4    -0.304021656085E+04    0.94424E-05   -0.27736E-04  6912   0.693E-03    0.366E-02
DAV:   5    -0.304021655032E+04    0.10536E-04   -0.16058E-04  6720   0.449E-03    0.188E-02
DAV:   6    -0.304021654553E+04    0.47814E-05   -0.26291E-05  6528   0.202E-03
  15 F= -.30808786E+04 E0= -.30808786E+04  d E =-.117287E-04  mag=    -0.0000
       N       E                     dE             d eps       ncg     rms          rms(c)
DAV:   1    -0.304021686941E+04   -0.31910E-03   -0.14239E-01  6336   0.134E-01    0.107E-01
DAV:   2    -0.304021684968E+04    0.19736E-04   -0.62912E-04  6528   0.127E-02    0.646E-02
DAV:   3    -0.304021683448E+04    0.15196E-04   -0.20593E-04  6528   0.689E-03    0.453E-02
DAV:   4    -0.304021681958E+04    0.14899E-04   -0.17787E-04  6720   0.593E-03    0.254E-02
DAV:   5    -0.304021681537E+04    0.42176E-05   -0.94495E-05  6720   0.378E-03
  16 F= -.30808786E+04 E0= -.30808786E+04  d E =-.810692E-05  mag=    -0.0000
       N       E                     dE             d eps       ncg     rms          rms(c)
DAV:   1    -0.304021622074E+04    0.59884E-03   -0.14484E-01  6336   0.148E-01    0.124E-01
DAV:   2    -0.304021617660E+04    0.44138E-04   -0.99388E-04  6912   0.161E-02    0.811E-02
DAV:   3    -0.304021615093E+04    0.25677E-04   -0.32953E-04  6912   0.853E-03    0.502E-02
DAV:   4    -0.304021613609E+04    0.14836E-04   -0.33971E-04  6528   0.745E-03    0.386E-02
DAV:   5    -0.304021612217E+04    0.13916E-04   -0.21033E-04  6720   0.530E-03    0.200E-02
DAV:   6    -0.304021611717E+04    0.50068E-05   -0.36147E-05  6720   0.250E-03
  17 F= -.30808785E+04 E0= -.30808785E+04  d E =0.161342E-03  mag=    -0.0000
       N       E                     dE             d eps       ncg     rms          rms(c)
DAV:   1    -0.304021607845E+04    0.43727E-04   -0.13914E-01  6528   0.148E-01    0.122E-01
DAV:   2    -0.304021604299E+04    0.35460E-04   -0.64860E-04  6912   0.122E-02    0.723E-02
DAV:   3    -0.304021602065E+04    0.22337E-04   -0.15230E-04  6912   0.504E-03    0.442E-02
DAV:   4    -0.304021603077E+04   -0.10120E-04   -0.39023E-04  6912   0.707E-03    0.446E-02
DAV:   5    -0.304021600103E+04    0.29742E-04   -0.19997E-04  6912   0.513E-03    0.117E-02
DAV:   6    -0.304021600050E+04    0.52457E-06   -0.54159E-06  5952   0.114E-03
  18 F= -.30808785E+04 E0= -.30808785E+04  d E =-.120209E-04  mag=    -0.0000
       N       E                     dE             d eps       ncg     rms          rms(c)
DAV:   1    -0.304021678268E+04   -0.78165E-03   -0.13984E-01  6528   0.147E-01    0.115E-01
DAV:   2    -0.304021675064E+04    0.32045E-04   -0.55653E-04  6528   0.117E-02    0.653E-02
DAV:   3    -0.304021672644E+04    0.24197E-04   -0.11833E-04  6720   0.491E-03    0.375E-02
DAV:   4    -0.304021672667E+04   -0.22782E-06   -0.21687E-04  6912   0.589E-03    0.316E-02
DAV:   5    -0.304021671168E+04    0.14989E-04   -0.94050E-05  6720   0.390E-03    0.110E-02
DAV:   6    -0.304021671119E+04    0.49395E-06   -0.23000E-06  5568   0.947E-04
  19 F= -.30808785E+04 E0= -.30808785E+04  d E =0.856375E-05  mag=    -0.0000
       N       E                     dE             d eps       ncg     rms          rms(c)
DAV:   1    -0.304021683066E+04   -0.11898E-03   -0.14175E-01  6336   0.152E-01    0.128E-01
DAV:   2    -0.304021677544E+04    0.55218E-04   -0.96417E-04  6528   0.149E-02    0.779E-02
DAV:   3    -0.304021674426E+04    0.31183E-04   -0.13897E-04  6912   0.574E-03    0.464E-02
DAV:   4    -0.304021674064E+04    0.36191E-05   -0.21513E-04  6912   0.703E-03    0.389E-02
DAV:   5    -0.304021671958E+04    0.21062E-04   -0.10442E-04  7104   0.493E-03    0.129E-02
DAV:   6    -0.304021671949E+04    0.92143E-07   -0.37395E-06  5760   0.131E-03
  20 F= -.30808784E+04 E0= -.30808784E+04  d E =0.758309E-04  mag=    -0.0000
       N       E                     dE             d eps       ncg     rms          rms(c)
DAV:   1    -0.304021649812E+04    0.22146E-03   -0.14512E-01  6144   0.141E-01    0.127E-01
DAV:   2    -0.304021644768E+04    0.50442E-04   -0.91824E-04  6528   0.140E-02    0.857E-02
DAV:   3    -0.304021641674E+04    0.30936E-04   -0.24434E-04  7104   0.696E-03    0.505E-02
DAV:   4    -0.304021640383E+04    0.12913E-04   -0.24854E-04  6720   0.719E-03    0.413E-02
DAV:   5    -0.304021638438E+04    0.19445E-04   -0.84537E-05  6912   0.434E-03    0.116E-02
DAV:   6    -0.304021638455E+04   -0.16502E-06   -0.19455E-06  5952   0.114E-03
  21 F= -.30808785E+04 E0= -.30808785E+04  d E =-.147249E-03  mag=    -0.0000
       N       E                     dE             d eps       ncg     rms          rms(c)
DAV:   1    -0.304021684561E+04   -0.46123E-03   -0.14114E-01  6144   0.140E-01    0.116E-01
DAV:   2    -0.304021681745E+04    0.28166E-04   -0.60691E-04  6528   0.116E-02    0.698E-02
DAV:   3    -0.304021679739E+04    0.20053E-04   -0.14404E-04  6720   0.544E-03    0.425E-02
DAV:   4    -0.304021679091E+04    0.64818E-05   -0.17767E-04  6912   0.593E-03    0.329E-02
DAV:   5    -0.304021677735E+04    0.13567E-04   -0.59952E-05  6912   0.354E-03    0.102E-02
DAV:   6    -0.304021677734E+04    0.47730E-08    0.32632E-07  5568   0.792E-04
  22 F= -.30808786E+04 E0= -.30808786E+04  d E =-.226495E-04  mag=    -0.0000
       N       E                     dE             d eps       ncg     rms          rms(c)
DAV:   1    -0.304021619513E+04    0.58222E-03   -0.14117E-01  6144   0.146E-01    0.124E-01
DAV:   2    -0.304021616215E+04    0.32981E-04   -0.76889E-04  6528   0.125E-02    0.709E-02
DAV:   3    -0.304021613539E+04    0.26755E-04   -0.78205E-05  6912   0.423E-03    0.404E-02
DAV:   4    -0.304021613269E+04    0.27054E-05   -0.12291E-04  6528   0.518E-03    0.337E-02
DAV:   5    -0.304021612049E+04    0.12197E-04   -0.73877E-05  6912   0.396E-03    0.109E-02
DAV:   6    -0.304021612049E+04   -0.51223E-08   -0.38422E-06  5568   0.113E-03
  23 F= -.30808785E+04 E0= -.30808785E+04  d E =0.710510E-04  mag=    -0.0000
       N       E                     dE             d eps       ncg     rms          rms(c)
DAV:   1    -0.304021693547E+04   -0.81498E-03   -0.14210E-01  5952   0.143E-01    0.132E-01
DAV:   2    -0.304021683665E+04    0.98815E-04   -0.10038E-03  6336   0.140E-02    0.829E-02
DAV:   3    -0.304021679870E+04    0.37949E-04   -0.11420E-04  7104   0.484E-03    0.488E-02
DAV:   4    -0.304021680122E+04   -0.25116E-05   -0.30965E-04  6720   0.714E-03    0.452E-02
DAV:   5    -0.304021677138E+04    0.29832E-04   -0.25909E-04  6720   0.586E-03    0.171E-02
DAV:   6    -0.304021676916E+04    0.22202E-05   -0.18751E-05  6144   0.175E-03
  24 F= -.30808784E+04 E0= -.30808784E+04  d E =0.820342E-04  mag=    -0.0000
       N       E                     dE             d eps       ncg     rms          rms(c)
DAV:   1    -0.304021691715E+04   -0.14577E-03   -0.14213E-01  5760   0.142E-01    0.122E-01
DAV:   2    -0.304021685915E+04    0.58002E-04   -0.77469E-04  6336   0.124E-02    0.730E-02
DAV:   3    -0.304021682561E+04    0.33534E-04   -0.77890E-05  6912   0.379E-03    0.420E-02
DAV:   4    -0.304021682658E+04   -0.96427E-06   -0.18496E-04  6720   0.568E-03    0.366E-02
DAV:   5    -0.304021680928E+04    0.17298E-04   -0.11884E-04  6912   0.420E-03    0.132E-02
DAV:   6    -0.304021680867E+04    0.61386E-06   -0.53464E-06  5568   0.113E-03
  25 F= -.30808785E+04 E0= -.30808785E+04  d E =-.146044E-03  mag=    -0.0000
       N       E                     dE             d eps       ncg     rms          rms(c)
DAV:   1    -0.304021681596E+04   -0.66800E-05   -0.94524E-02  5952   0.118E-01    0.928E-02
DAV:   2    -0.304021683167E+04   -0.15709E-04   -0.66167E-04  6528   0.138E-02    0.638E-02
DAV:   3    -0.304021681985E+04    0.11821E-04   -0.86982E-05  6816   0.370E-03    0.352E-02
DAV:   4    -0.304021683136E+04   -0.11514E-04   -0.25218E-04  6912   0.565E-03    0.422E-02
DAV:   5    -0.304021680980E+04    0.21559E-04   -0.15197E-04  7104   0.422E-03    0.887E-03
DAV:   6    -0.304021680931E+04    0.49267E-06   -0.72733E-06  5952   0.128E-03
  26 F= -.30808788E+04 E0= -.30808788E+04  d E =-.218201E-03  mag=    -0.0000
       N       E                     dE             d eps       ncg     rms          rms(c)
DAV:   1    -0.304021663730E+04    0.17251E-03   -0.50378E-02  5952   0.754E-02    0.585E-02
DAV:   2    -0.304021668186E+04   -0.44567E-04   -0.65174E-04  6528   0.150E-02    0.776E-02
DAV:   3    -0.304021667585E+04    0.60091E-05   -0.11828E-05  6720   0.166E-03
  27 F= -.30808788E+04 E0= -.30808788E+04  d E =-.212400E-04  mag=    -0.0000
       N       E                     dE             d eps       ncg     rms          rms(c)
DAV:   1    -0.304021697341E+04   -0.29154E-03   -0.49950E-02  5760   0.738E-02    0.712E-02
DAV:   2    -0.304021704076E+04   -0.67355E-04   -0.12153E-03  6720   0.169E-02    0.829E-02
DAV:   3    -0.304021699971E+04    0.41049E-04   -0.28362E-04  6816   0.579E-03    0.463E-02
DAV:   4    -0.304021701239E+04   -0.12675E-04   -0.13648E-04  6528   0.406E-03    0.407E-02
DAV:   5    -0.304021699914E+04    0.13247E-04   -0.11970E-04  6528   0.395E-03    0.181E-02
DAV:   6    -0.304021699546E+04    0.36806E-05   -0.15661E-05  5760   0.191E-03
  28 F= -.30808786E+04 E0= -.30808786E+04  d E =0.210173E-03  mag=    -0.0000
       N       E                     dE             d eps       ncg     rms          rms(c)
DAV:   1    -0.304021685013E+04    0.14901E-03   -0.50507E-02  5952   0.815E-02    0.933E-02
DAV:   2    -0.304021691916E+04   -0.69026E-04   -0.11079E-03  6528   0.197E-02    0.114E-01
DAV:   3    -0.304021688994E+04    0.29217E-04   -0.95564E-05  6240   0.448E-03    0.757E-02
DAV:   4    -0.304021692868E+04   -0.38745E-04   -0.15149E-04  6912   0.515E-03    0.680E-02
DAV:   5    -0.304021689008E+04    0.38599E-04   -0.22569E-04  6912   0.585E-03    0.175E-02
DAV:   6    -0.304021688793E+04    0.21551E-05   -0.11373E-05  5952   0.169E-03
  29 F= -.30808788E+04 E0= -.30808788E+04  d E =-.189800E-03  mag=    -0.0000
       N       E                     dE             d eps       ncg     rms          rms(c)
DAV:   1    -0.304021615975E+04    0.73033E-03   -0.50778E-02  5952   0.780E-02    0.824E-02
DAV:   2    -0.304021620215E+04   -0.42400E-04   -0.71792E-04  6528   0.161E-02    0.808E-02
DAV:   3    -0.304021618817E+04    0.13983E-04   -0.13373E-04  6624   0.470E-03    0.452E-02
DAV:   4    -0.304021622260E+04   -0.34435E-04   -0.30540E-04  6912   0.607E-03    0.558E-02
DAV:   5    -0.304021618980E+04    0.32800E-04   -0.22797E-04  6720   0.515E-03    0.167E-02
DAV:   6    -0.304021618711E+04    0.26948E-05   -0.12240E-05  5952   0.182E-03
  30 F= -.30808787E+04 E0= -.30808787E+04  d E =0.104133E-03  mag=    -0.0000
       N       E                     dE             d eps       ncg     rms          rms(c)
DAV:   1    -0.304021692959E+04   -0.73979E-03   -0.52128E-02  5952   0.799E-02    0.883E-02
DAV:   2    -0.304021697338E+04   -0.43787E-04   -0.92941E-04  6720   0.179E-02    0.972E-02
DAV:   3    -0.304021694651E+04    0.26873E-04   -0.13991E-04  6720   0.493E-03    0.582E-02
DAV:   4    -0.304021698816E+04   -0.41649E-04   -0.30187E-04  6720   0.618E-03    0.644E-02
DAV:   5    -0.304021694465E+04    0.43509E-04   -0.29348E-04  6720   0.582E-03    0.202E-02
DAV:   6    -0.304021694013E+04    0.45202E-05   -0.18080E-05  6336   0.204E-03
  31 F= -.30808788E+04 E0= -.30808788E+04  d E =-.103057E-03  mag=    -0.0000
       N       E                     dE             d eps       ncg     rms          rms(c)
DAV:   1    -0.304021665467E+04    0.28998E-03   -0.49748E-02  6048   0.770E-02    0.498E-02
DAV:   2    -0.304021669920E+04   -0.44536E-04   -0.55771E-04  6720   0.142E-02    0.528E-02
DAV:   3    -0.304021669437E+04    0.48342E-05   -0.32829E-05  6528   0.255E-03
  32 F= -.30808787E+04 E0= -.30808787E+04  d E =0.774956E-04  mag=    -0.0000
       N       E                     dE             d eps       ncg     rms          rms(c)
DAV:   1    -0.304021661714E+04    0.82061E-04   -0.50082E-02  5952   0.783E-02    0.560E-02
DAV:   2    -0.304021671341E+04   -0.96271E-04   -0.16442E-03  6912   0.195E-02    0.987E-02
DAV:   3    -0.304021663652E+04    0.76891E-04   -0.26704E-04  6528   0.599E-03    0.501E-02
DAV:   4    -0.304021664597E+04   -0.94491E-05   -0.42442E-05  6528   0.248E-03
  33 F= -.30808787E+04 E0= -.30808787E+04  d E =-.416341E-04  mag=    -0.0000
       N       E                     dE             d eps       ncg     rms          rms(c)
DAV:   1    -0.304021639128E+04    0.24524E-03   -0.51561E-02  6144   0.800E-02    0.993E-02
DAV:   2    -0.304021645326E+04   -0.61976E-04   -0.88753E-04  6912   0.178E-02    0.940E-02
DAV:   3    -0.304021643727E+04    0.15986E-04   -0.15136E-04  7104   0.531E-03    0.589E-02
DAV:   4    -0.304021647061E+04   -0.33340E-04   -0.28976E-04  6912   0.637E-03    0.548E-02
DAV:   5    -0.304021644019E+04    0.30420E-04   -0.25823E-04  6912   0.572E-03    0.168E-02
DAV:   6    -0.304021643599E+04    0.41975E-05   -0.23979E-05  5952   0.198E-03
  34 F= -.30808786E+04 E0= -.30808786E+04  d E =0.141331E-03  mag=    -0.0000
       N       E                     dE             d eps       ncg     rms          rms(c)
DAV:   1    -0.304021684526E+04   -0.40507E-03   -0.50575E-02  6144   0.824E-02    0.925E-02
DAV:   2    -0.304021690032E+04   -0.55055E-04   -0.89720E-04  6720   0.190E-02    0.959E-02
DAV:   3    -0.304021688452E+04    0.15799E-04   -0.65644E-05  6336   0.423E-03    0.598E-02
DAV:   4    -0.304021690203E+04   -0.17509E-04   -0.92698E-05  6912   0.460E-03    0.499E-02
DAV:   5    -0.304021688094E+04    0.21085E-04   -0.94753E-05  7104   0.451E-03    0.942E-03
DAV:   6    -0.304021687999E+04    0.95216E-06   -0.35133E-06  5952   0.114E-03
  35 F= -.30808787E+04 E0= -.30808787E+04  d E =-.136686E-03  mag=    -0.0000
       N       E                     dE             d eps       ncg     rms          rms(c)
DAV:   1    -0.304021658640E+04    0.29454E-03   -0.50208E-02  5952   0.763E-02    0.610E-02
DAV:   2    -0.304021662814E+04   -0.41740E-04   -0.65113E-04  6720   0.157E-02    0.787E-02
DAV:   3    -0.304021661881E+04    0.93334E-05   -0.18955E-05  6720   0.221E-03
  36 F= -.30808788E+04 E0= -.30808788E+04  d E =-.418268E-04  mag=    -0.0000
       N       E                     dE             d eps       ncg     rms          rms(c)
DAV:   1    -0.304021656557E+04    0.62570E-04   -0.50680E-02  6144   0.781E-02    0.711E-02
DAV:   2    -0.304021663849E+04   -0.72915E-04   -0.13924E-03  7104   0.204E-02    0.103E-01
DAV:   3    -0.304021657470E+04    0.63782E-04   -0.22338E-04  6336   0.638E-03    0.531E-02
DAV:   4    -0.304021658967E+04   -0.14967E-04   -0.70676E-05  6720   0.313E-03    0.444E-02
DAV:   5    -0.304021657950E+04    0.10169E-04   -0.16625E-04  6912   0.438E-03    0.233E-02
DAV:   6    -0.304021657257E+04    0.69364E-05   -0.33889E-05  5952   0.232E-03
  37 F= -.30808786E+04 E0= -.30808786E+04  d E =0.123957E-03  mag=    -0.0000
       N       E                     dE             d eps       ncg     rms          rms(c)
DAV:   1    -0.304021645661E+04    0.12290E-03   -0.50926E-02  6144   0.859E-02    0.763E-02
DAV:   2    -0.304021651502E+04   -0.58409E-04   -0.81780E-04  6720   0.190E-02    0.875E-02
DAV:   3    -0.304021650245E+04    0.12568E-04   -0.45886E-05  6336   0.344E-03    0.595E-02
DAV:   4    -0.304021652342E+04   -0.20977E-04   -0.10811E-04  6720   0.452E-03    0.493E-02
DAV:   5    -0.304021649893E+04    0.24496E-04   -0.13907E-04  6912   0.485E-03    0.106E-02
DAV:   6    -0.304021649771E+04    0.12208E-05   -0.33584E-06  5760   0.120E-03
  38 F= -.30808787E+04 E0= -.30808787E+04  d E =-.409123E-04  mag=    -0.0000
       N       E                     dE             d eps       ncg     rms          rms(c)
DAV:   1    -0.304021658478E+04   -0.85855E-04   -0.49880E-02  6144   0.820E-02    0.525E-02
DAV:   2    -0.304021662019E+04   -0.35407E-04   -0.50432E-04  7104   0.146E-02    0.630E-02
DAV:   3    -0.304021661525E+04    0.49382E-05   -0.11869E-05  6336   0.180E-03
  39 F= -.30808787E+04 E0= -.30808787E+04  d E =-.477876E-04  mag=    -0.0000
       N       E                     dE             d eps       ncg     rms          rms(c)
DAV:   1    -0.304021653861E+04    0.81582E-04   -0.52928E-02  6144   0.831E-02    0.992E-02
DAV:   2    -0.304021663015E+04   -0.91544E-04   -0.14960E-03  7296   0.214E-02    0.120E-01
DAV:   3    -0.304021657407E+04    0.56086E-04   -0.29346E-04  6528   0.654E-03    0.749E-02
DAV:   4    -0.304021662229E+04   -0.48222E-04   -0.28139E-04  6912   0.565E-03    0.666E-02
DAV:   5    -0.304021658155E+04    0.40733E-04   -0.36773E-04  7104   0.648E-03    0.256E-02
DAV:   6    -0.304021657484E+04    0.67173E-05   -0.34669E-05  6336   0.269E-03
  40 F= -.30808786E+04 E0= -.30808786E+04  d E =0.918164E-04  mag=    -0.0000
       N       E                     dE             d eps       ncg     rms          rms(c)
DAV:   1    -0.304021658955E+04   -0.79941E-05   -0.50410E-02  6144   0.834E-02    0.952E-02
DAV:   2    -0.304021666032E+04   -0.70768E-04   -0.10600E-03  6720   0.196E-02    0.106E-01
DAV:   3    -0.304021663889E+04    0.21424E-04   -0.10905E-04  6720   0.449E-03    0.684E-02
DAV:   4    -0.304021667960E+04   -0.40707E-04   -0.23896E-04  6912   0.566E-03    0.640E-02
DAV:   5    -0.304021663755E+04    0.42050E-04   -0.28132E-04  6912   0.584E-03    0.161E-02
DAV:   6    -0.304021663431E+04    0.32428E-05   -0.19360E-05  6144   0.185E-03
  41 F= -.30808787E+04 E0= -.30808787E+04  d E =-.926461E-04  mag=    -0.0000
       N       E                     dE             d eps       ncg     rms          rms(c)
DAV:   1    -0.304021650347E+04    0.13408E-03   -0.49529E-02  5760   0.758E-02    0.632E-02
DAV:   2    -0.304021655593E+04   -0.52461E-04   -0.78233E-04  6912   0.158E-02    0.848E-02
DAV:   3    -0.304021654411E+04    0.11825E-04   -0.23112E-05  6720   0.215E-03    0.700E-02
DAV:   4    -0.304021654971E+04   -0.56045E-05   -0.25325E-05  6336   0.205E-03
  42 F= -.30808788E+04 E0= -.30808788E+04  d E =-.383222E-04  mag=    -0.0000
       N       E                     dE             d eps       ncg     rms          rms(c)
DAV:   1    -0.304021692533E+04   -0.38122E-03   -0.50869E-02  5760   0.768E-02    0.104E-01
DAV:   2    -0.304021699285E+04   -0.67526E-04   -0.11648E-03  6720   0.186E-02    0.969E-02
DAV:   3    -0.304021696707E+04    0.25778E-04   -0.21352E-04  6912   0.611E-03    0.544E-02
DAV:   4    -0.304021699359E+04   -0.26518E-04   -0.26111E-04  7104   0.632E-03    0.530E-02
DAV:   5    -0.304021696318E+04    0.30416E-04   -0.17817E-04  7104   0.520E-03    0.150E-02
DAV:   6    -0.304021696060E+04    0.25778E-05   -0.12675E-05  5952   0.165E-03
  43 F= -.30808786E+04 E0= -.30808786E+04  d E =0.180781E-03  mag=    -0.0000
       N       E                     dE             d eps       ncg     rms          rms(c)
DAV:   1    -0.304021652166E+04    0.44151E-03   -0.50249E-02  5760   0.810E-02    0.934E-02
DAV:   2    -0.304021658330E+04   -0.61632E-04   -0.91270E-04  6528   0.178E-02    0.839E-02
DAV:   3    -0.304021657231E+04    0.10989E-04   -0.12302E-04  6528   0.488E-03    0.460E-02
DAV:   4    -0.304021659979E+04   -0.27482E-04   -0.22952E-04  6912   0.602E-03    0.529E-02
DAV:   5    -0.304021657415E+04    0.25636E-04   -0.17014E-04  6912   0.501E-03    0.157E-02
DAV:   6    -0.304021657195E+04    0.22089E-05   -0.14191E-05  6144   0.168E-03
  44 F= -.30808788E+04 E0= -.30808788E+04  d E =-.184993E-03  mag=    -0.0000
       N       E                     dE             d eps       ncg     rms          rms(c)
DAV:   1    -0.304021694357E+04   -0.36941E-03   -0.49041E-02  5760   0.753E-02    0.580E-02
DAV:   2    -0.304021698150E+04   -0.37930E-04   -0.56122E-04  6528   0.142E-02    0.638E-02
DAV:   3    -0.304021697320E+04    0.83028E-05   -0.42271E-05  6720   0.273E-03
  45 F= -.30808787E+04 E0= -.30808787E+04  d E =0.286848E-04  mag=    -0.0000
       N       E                     dE             d eps       ncg     rms          rms(c)
DAV:   1    -0.304021658605E+04    0.39545E-03   -0.51086E-02  5952   0.785E-02    0.102E-01
DAV:   2    -0.304021669355E+04   -0.10750E-03   -0.17814E-03  6336   0.202E-02    0.103E-01
DAV:   3    -0.304021662267E+04    0.70881E-04   -0.84572E-04  6816   0.998E-03    0.504E-02
DAV:   4    -0.304021663160E+04   -0.89299E-05   -0.31422E-04  6912   0.596E-03    0.457E-02
DAV:   5    -0.304021661670E+04    0.14901E-04   -0.12234E-04  6528   0.379E-03    0.125E-02
DAV:   6    -0.304021661494E+04    0.17596E-05   -0.87988E-06  6144   0.149E-03
  46 F= -.30808787E+04 E0= -.30808787E+04  d E =0.800651E-04  mag=    -0.0000
       N       E                     dE             d eps       ncg     rms          rms(c)
DAV:   1    -0.304021654336E+04    0.73334E-04   -0.53304E-02  5952   0.818E-02    0.986E-02
DAV:   2    -0.304021659467E+04   -0.51308E-04   -0.12487E-03  6528   0.215E-02    0.120E-01
DAV:   3    -0.304021656033E+04    0.34338E-04   -0.10813E-04  6528   0.499E-03    0.772E-02
DAV:   4    -0.304021658916E+04   -0.28832E-04   -0.11849E-04  6720   0.466E-03    0.696E-02
DAV:   5    -0.304021656172E+04    0.27445E-04   -0.25619E-04  7104   0.606E-03    0.258E-02
DAV:   6    -0.304021655421E+04    0.75108E-05   -0.51869E-05  6720   0.270E-03
  47 F= -.30808786E+04 E0= -.30808786E+04  d E =0.713668E-04  mag=    -0.0000
       N       E                     dE             d eps       ncg     rms          rms(c)
DAV:   1    -0.304021717709E+04   -0.61537E-03   -0.54462E-02  5760   0.684E-02    0.781E-02
DAV:   2    -0.304021720394E+04   -0.26852E-04   -0.11231E-03  6528   0.181E-02    0.109E-01
DAV:   3    -0.304021717001E+04    0.33939E-04   -0.71521E-05  6528   0.390E-03    0.760E-02
DAV:   4    -0.304021717368E+04   -0.36748E-05   -0.23788E-05  6720   0.224E-03
  48 F= -.30808788E+04 E0= -.30808788E+04  d E =-.176940E-03  mag=    -0.0000
       N       E                     dE             d eps       ncg     rms          rms(c)
DAV:   1    -0.304021676195E+04    0.40806E-03   -0.51983E-02  5760   0.676E-02    0.539E-02
DAV:   2    -0.304021679935E+04   -0.37406E-04   -0.53026E-04  6528   0.122E-02    0.459E-02
DAV:   3    -0.304021679413E+04    0.52240E-05   -0.70259E-05  6720   0.353E-03
  49 F= -.30808788E+04 E0= -.30808788E+04  d E =-.188967E-04  mag=    -0.0000
       N       E                     dE             d eps       ncg     rms          rms(c)
DAV:   1    -0.304021694761E+04   -0.14825E-03   -0.51967E-02  5760   0.697E-02    0.510E-02
DAV:   2    -0.304021701737E+04   -0.69765E-04   -0.10764E-03  6528   0.152E-02    0.582E-02
DAV:   3    -0.304021698522E+04    0.32152E-04   -0.27703E-04  6528   0.606E-03    0.249E-02
DAV:   4    -0.304021698421E+04    0.10127E-05   -0.41318E-05  6336   0.233E-03
  50 F= -.30808788E+04 E0= -.30808788E+04  d E =-.186463E-05  mag=    -0.0000
       N       E                     dE             d eps       ncg     rms          rms(c)
DAV:   1    -0.304021691445E+04    0.70771E-04   -0.52905E-02  5760   0.681E-02    0.607E-02
DAV:   2    -0.304021695580E+04   -0.41356E-04   -0.89769E-04  6528   0.161E-02    0.836E-02
DAV:   3    -0.304021693609E+04    0.19715E-04   -0.47447E-05  6528   0.313E-03    0.581E-02
DAV:   4    -0.304021693678E+04   -0.68673E-06   -0.18380E-05  6144   0.185E-03
  51 F= -.30808788E+04 E0= -.30808788E+04  d E =0.178429E-04  mag=    -0.0000
       N       E                     dE             d eps       ncg     rms          rms(c)
DAV:   1    -0.304021688626E+04    0.49827E-04   -0.52172E-02  5568   0.670E-02    0.531E-02
DAV:   2    -0.304021692148E+04   -0.35218E-04   -0.66141E-04  6528   0.139E-02    0.657E-02
DAV:   3    -0.304021691061E+04    0.10869E-04   -0.30830E-05  6336   0.265E-03    0.449E-02
DAV:   4    -0.304021691365E+04   -0.30407E-05   -0.24524E-05  6528   0.213E-03
  52 F= -.30808787E+04 E0= -.30808787E+04  d E =0.114845E-03  mag=    -0.0000
       N       E                     dE             d eps       ncg     rms          rms(c)
DAV:   1    -0.304021668375E+04    0.22686E-03   -0.52687E-02  5952   0.721E-02    0.706E-02
DAV:   2    -0.304021673283E+04   -0.49076E-04   -0.94538E-04  6912   0.157E-02    0.601E-02
DAV:   3    -0.304021672278E+04    0.10052E-04   -0.13243E-04  6912   0.482E-03    0.336E-02
DAV:   4    -0.304021672864E+04   -0.58619E-05   -0.13648E-04  6528   0.452E-03    0.362E-02
DAV:   5    -0.304021671962E+04    0.90149E-05   -0.96841E-05  6720   0.358E-03
  53 F= -.30808787E+04 E0= -.30808787E+04  d E =-.927312E-04  mag=    -0.0000
       N       E                     dE             d eps       ncg     rms          rms(c)
DAV:   1    -0.304021698073E+04   -0.25210E-03   -0.50169E-02  6144   0.628E-02    0.361E-02
DAV:   2    -0.304021701160E+04   -0.30862E-04   -0.50640E-04  6720   0.117E-02    0.502E-02
DAV:   3    -0.304021700144E+04    0.10152E-04   -0.28648E-05  6336   0.265E-03    0.295E-02
DAV:   4    -0.304021700201E+04   -0.56956E-06   -0.76234E-06  6144   0.159E-03
  54 F= -.30808787E+04 E0= -.30808787E+04  d E =0.641973E-04  mag=    -0.0000
       N       E                     dE             d eps       ncg     rms          rms(c)
DAV:   1    -0.304021692849E+04    0.72950E-04   -0.54917E-02  6144   0.718E-02    0.990E-02
DAV:   2    -0.304021699152E+04   -0.63025E-04   -0.25686E-03  7104   0.261E-02    0.174E-01
DAV:   3    -0.304021687542E+04    0.11610E-03   -0.20585E-04  6720   0.668E-03    0.115E-01
DAV:   4    -0.304021687383E+04    0.15867E-05   -0.45492E-05  6720   0.334E-03
  55 F= -.30808787E+04 E0= -.30808787E+04  d E =-.584409E-04  mag=    -0.0000
       N       E                     dE             d eps       ncg     rms          rms(c)
DAV:   1    -0.304021628841E+04    0.58701E-03   -0.51762E-02  5952   0.771E-02    0.809E-02
DAV:   2    -0.304021636230E+04   -0.73892E-04   -0.14011E-03  6912   0.203E-02    0.104E-01
DAV:   3    -0.304021630642E+04    0.55888E-04   -0.19037E-04  6528   0.676E-03    0.533E-02
DAV:   4    -0.304021631673E+04   -0.10310E-04   -0.60451E-05  6528   0.339E-03    0.490E-02
DAV:   5    -0.304021631069E+04    0.60324E-05   -0.15613E-04  6912   0.460E-03    0.262E-02
DAV:   6    -0.304021630242E+04    0.82722E-05   -0.50172E-05  6720   0.277E-03
  56 F= -.30808787E+04 E0= -.30808787E+04  d E =0.221233E-04  mag=    -0.0000
       N       E                     dE             d eps       ncg     rms          rms(c)
DAV:   1    -0.304021654979E+04   -0.23910E-03   -0.51430E-02  5760   0.722E-02    0.565E-02
DAV:   2    -0.304021657903E+04   -0.29242E-04   -0.55150E-04  6528   0.142E-02    0.738E-02
DAV:   3    -0.304021657154E+04    0.74921E-05   -0.15381E-05  6528   0.214E-03
  57 F= -.30808788E+04 E0= -.30808788E+04  d E =-.664439E-04  mag=    -0.0000
       N       E                     dE             d eps       ncg     rms          rms(c)
DAV:   1    -0.304021690456E+04   -0.32552E-03   -0.50895E-02  5760   0.719E-02    0.807E-02
DAV:   2    -0.304021695021E+04   -0.45652E-04   -0.87949E-04  6720   0.150E-02    0.736E-02
DAV:   3    -0.304021692616E+04    0.24043E-04   -0.25837E-04  7104   0.630E-03    0.423E-02
DAV:   4    -0.304021692925E+04   -0.30901E-05   -0.14576E-04  6912   0.450E-03    0.338E-02
DAV:   5    -0.304021692364E+04    0.56107E-05   -0.12388E-04  6912   0.385E-03    0.172E-02
DAV:   6    -0.304021691851E+04    0.51335E-05   -0.32248E-05  5952   0.210E-03
  58 F= -.30808787E+04 E0= -.30808787E+04  d E =0.909310E-04  mag=    -0.0000
       N       E                     dE             d eps       ncg     rms          rms(c)
DAV:   1    -0.304021628281E+04    0.64084E-03   -0.52215E-02  5760   0.742E-02    0.849E-02
DAV:   2    -0.304021633981E+04   -0.57004E-04   -0.83024E-04  6336   0.163E-02    0.898E-02
DAV:   3    -0.304021632959E+04    0.10220E-04   -0.41666E-05  6720   0.354E-03    0.550E-02
DAV:   4    -0.304021634353E+04   -0.13936E-04   -0.55251E-05  6528   0.387E-03    0.499E-02
DAV:   5    -0.304021633078E+04    0.12748E-04   -0.64482E-05  6912   0.389E-03    0.819E-03
DAV:   6    -0.304021633061E+04    0.16624E-06   -0.92695E-07  5376   0.841E-04
  59 F= -.30808787E+04 E0= -.30808787E+04  d E =-.428756E-04  mag=    -0.0000
       N       E                     dE             d eps       ncg     rms          rms(c)
DAV:   1    -0.304021675930E+04   -0.42852E-03   -0.51126E-02  5568   0.701E-02    0.527E-02
DAV:   2    -0.304021678956E+04   -0.30262E-04   -0.48768E-04  6336   0.124E-02    0.530E-02
DAV:   3    -0.304021678213E+04    0.74318E-05   -0.44927E-05  6912   0.284E-03
  60 F= -.30808787E+04 E0= -.30808787E+04  d E =-.991149E-05  mag=    -0.0000
       N       E                     dE             d eps       ncg     rms          rms(c)
DAV:   1    -0.304021695409E+04   -0.16453E-03   -0.52510E-02  5568   0.710E-02    0.782E-02
DAV:   2    -0.304021700506E+04   -0.50974E-04   -0.10689E-03  6528   0.167E-02    0.889E-02
DAV:   3    -0.304021696975E+04    0.35310E-04   -0.17479E-04  6720   0.552E-03    0.532E-02
DAV:   4    -0.304021697915E+04   -0.93995E-05   -0.76266E-05  6720   0.332E-03
  61 F= -.30808787E+04 E0= -.30808787E+04  d E =0.113004E-04  mag=    -0.0000
       N       E                     dE             d eps       ncg     rms          rms(c)
DAV:   1    -0.304021651399E+04    0.45576E-03   -0.53103E-02  6144   0.719E-02    0.727E-02
DAV:   2    -0.304021657823E+04   -0.64240E-04   -0.12356E-03  6720   0.184E-02    0.929E-02
DAV:   3    -0.304021654573E+04    0.32502E-04   -0.13696E-04  6528   0.547E-03    0.515E-02
DAV:   4    -0.304021656401E+04   -0.18284E-04   -0.11735E-04  6528   0.395E-03    0.507E-02
DAV:   5    -0.304021654919E+04    0.14820E-04   -0.18144E-04  6912   0.464E-03    0.286E-02
DAV:   6    -0.304021654481E+04    0.43792E-05   -0.20601E-05  6528   0.225E-03
  62 F= -.30808787E+04 E0= -.30808787E+04  d E =0.140998E-04  mag=    -0.0000
       N       E                     dE             d eps       ncg     rms          rms(c)
DAV:   1    -0.304021638165E+04    0.16754E-03   -0.52829E-02  6144   0.587E-02    0.259E-02
DAV:   2    -0.304021639621E+04   -0.14562E-04   -0.25198E-04  6528   0.829E-03    0.208E-02
DAV:   3    -0.304021639387E+04    0.23410E-05   -0.56858E-06  6336   0.157E-03
  63 F= -.30808787E+04 E0= -.30808787E+04  d E =-.163603E-04  mag=    -0.0000
       N       E                     dE             d eps       ncg     rms          rms(c)
DAV:   1    -0.304021686661E+04   -0.47040E-03   -0.52416E-02  6144   0.587E-02    0.291E-02
DAV:   2    -0.304021688174E+04   -0.15132E-04   -0.33515E-04  6720   0.944E-03    0.343E-02
DAV:   3    -0.304021687597E+04    0.57670E-05   -0.15840E-05  6336   0.233E-03
  64 F= -.30808787E+04 E0= -.30808787E+04  d E =0.659774E-04  mag=    -0.0000
       N       E                     dE             d eps       ncg     rms          rms(c)
DAV:   1    -0.304021663461E+04    0.24713E-03   -0.54154E-02  6336   0.747E-02    0.764E-02
DAV:   2    -0.304021669670E+04   -0.62095E-04   -0.17503E-03  7104   0.241E-02    0.159E-01
DAV:   3    -0.304021664702E+04    0.49684E-04   -0.58985E-05  6528   0.413E-03    0.125E-01
DAV:   4    -0.304021660759E+04    0.39428E-04   -0.76500E-05  6720   0.395E-03    0.554E-02
DAV:   5    -0.304021660135E+04    0.62416E-05   -0.32086E-05  7104   0.274E-03
  65 F= -.30808787E+04 E0= -.30808787E+04  d E =-.258315E-04  mag=    -0.0000
       N       E                     dE             d eps       ncg     rms          rms(c)
DAV:   1    -0.304021622164E+04    0.38595E-03   -0.54649E-02  5760   0.746E-02    0.900E-02
DAV:   2    -0.304021625761E+04   -0.35962E-04   -0.12251E-03  6912   0.211E-02    0.125E-01
DAV:   3    -0.304021621622E+04    0.41382E-04   -0.95640E-05  6912   0.494E-03    0.823E-02
DAV:   4    -0.304021623677E+04   -0.20542E-04   -0.85724E-05  6720   0.372E-03    0.688E-02
DAV:   5    -0.304021621805E+04    0.18713E-04   -0.24828E-04  7296   0.579E-03    0.311E-02
DAV:   6    -0.304021620892E+04    0.91374E-05   -0.55770E-05  6528   0.284E-03
  66 F= -.30808787E+04 E0= -.30808787E+04  d E =-.186713E-04  mag=    -0.0000
       N       E                     dE             d eps       ncg     rms          rms(c)
DAV:   1    -0.304021692336E+04   -0.70531E-03   -0.52252E-02  5952   0.727E-02    0.815E-02
DAV:   2    -0.304021696082E+04   -0.37456E-04   -0.83865E-04  6720   0.167E-02    0.931E-02
DAV:   3    -0.304021693833E+04    0.22489E-04   -0.85507E-05  6720   0.437E-03    0.554E-02
DAV:   4    -0.304021696069E+04   -0.22358E-04   -0.14824E-04  6528   0.468E-03    0.568E-02
DAV:   5    -0.304021693690E+04    0.23784E-04   -0.20292E-04  7104   0.499E-03    0.218E-02
DAV:   6    -0.304021693202E+04    0.48860E-05   -0.21265E-05  6528   0.197E-03
  67 F= -.30808788E+04 E0= -.30808788E+04  d E =-.482880E-04  mag=    -0.0000
       N       E                     dE             d eps       ncg     rms          rms(c)
DAV:   1    -0.304021684228E+04    0.94625E-04   -0.54472E-02  5952   0.724E-02    0.798E-02
DAV:   2    -0.304021687839E+04   -0.36114E-04   -0.17008E-03  6720   0.207E-02    0.128E-01
DAV:   3    -0.304021682232E+04    0.56071E-04   -0.11754E-04  6528   0.506E-03    0.854E-02
DAV:   4    -0.304021682190E+04    0.42084E-06   -0.38678E-05  6528   0.300E-03
  68 F= -.30808786E+04 E0= -.30808786E+04  d E =0.174360E-03  mag=    -0.0000
       N       E                     dE             d eps       ncg     rms          rms(c)
DAV:   1    -0.304021681186E+04    0.10463E-04   -0.54470E-02  5760   0.634E-02    0.871E-02
DAV:   2    -0.304021687375E+04   -0.61892E-04   -0.23037E-03  6528   0.222E-02    0.140E-01
DAV:   3    -0.304021677998E+04    0.93771E-04   -0.23909E-04  6528   0.703E-03    0.775E-02
DAV:   4    -0.304021678559E+04   -0.56112E-05   -0.39182E-05  6336   0.314E-03
  69 F= -.30808789E+04 E0= -.30808789E+04  d E =-.308107E-03  mag=    -0.0000
       N       E                     dE             d eps       ncg     rms          rms(c)
DAV:   1    -0.304021692345E+04   -0.14348E-03   -0.51456E-02  5952   0.576E-02    0.405E-02
DAV:   2    -0.304021695965E+04   -0.36193E-04   -0.50191E-04  6528   0.102E-02    0.375E-02
DAV:   3    -0.304021695403E+04    0.56162E-05   -0.41223E-05  6912   0.295E-03
  70 F= -.30808788E+04 E0= -.30808788E+04  d E =0.125497E-03  mag=    -0.0000
       N       E                     dE             d eps       ncg     rms          rms(c)
DAV:   1    -0.304021693156E+04    0.28091E-04   -0.51055E-02  5952   0.706E-02    0.577E-02
DAV:   2    -0.304021698185E+04   -0.50291E-04   -0.82169E-04  6528   0.144E-02    0.502E-02
DAV:   3    -0.304021696744E+04    0.14405E-04   -0.13331E-04  6720   0.512E-03    0.263E-02
DAV:   4    -0.304021696661E+04    0.83348E-06   -0.46781E-05  6720   0.292E-03
  71 F= -.30808788E+04 E0= -.30808788E+04  d E =-.190964E-04  mag=    -0.0000
       N       E                     dE             d eps       ncg     rms          rms(c)
DAV:   1    -0.304021629010E+04    0.67735E-03   -0.51805E-02  5760   0.705E-02    0.760E-02
DAV:   2    -0.304021633449E+04   -0.44397E-04   -0.72344E-04  6528   0.144E-02    0.688E-02
DAV:   3    -0.304021632381E+04    0.10684E-04   -0.11577E-04  6912   0.478E-03    0.336E-02
DAV:   4    -0.304021634002E+04   -0.16215E-04   -0.17268E-04  6912   0.515E-03    0.451E-02
DAV:   5    -0.304021632346E+04    0.16563E-04   -0.12812E-04  6528   0.410E-03    0.157E-02
DAV:   6    -0.304021632144E+04    0.20243E-05   -0.14426E-05  5952   0.159E-03
  72 F= -.30808787E+04 E0= -.30808787E+04  d E =0.105264E-03  mag=    -0.0000
       N       E                     dE             d eps       ncg     rms          rms(c)
DAV:   1    -0.304021689351E+04   -0.57005E-03   -0.54059E-02  5760   0.741E-02    0.931E-02
DAV:   2    -0.304021692605E+04   -0.32542E-04   -0.10956E-03  6528   0.183E-02    0.113E-01
DAV:   3    -0.304021689441E+04    0.31644E-04   -0.98707E-05  6720   0.448E-03    0.726E-02
DAV:   4    -0.304021691934E+04   -0.24931E-04   -0.12029E-04  6528   0.456E-03    0.679E-02
DAV:   5    -0.304021688909E+04    0.30250E-04   -0.21297E-04  7296   0.565E-03    0.234E-02
DAV:   6    -0.304021688383E+04    0.52643E-05   -0.30529E-05  6336   0.215E-03
  73 F= -.30808787E+04 E0= -.30808787E+04  d E =-.319582E-04  mag=     0.0000
       N       E                     dE             d eps       ncg     rms          rms(c)
DAV:   1    -0.304021655078E+04    0.33831E-03   -0.51918E-02  5568   0.655E-02    0.552E-02
DAV:   2    -0.304021659289E+04   -0.42111E-04   -0.77487E-04  6528   0.140E-02    0.689E-02
DAV:   3    -0.304021657873E+04    0.14153E-04   -0.47195E-05  6528   0.346E-03    0.392E-02
DAV:   4    -0.304021658367E+04   -0.49397E-05   -0.18570E-05  6528   0.227E-03
  74 F= -.30808788E+04 E0= -.30808788E+04  d E =-.942097E-04  mag=    -0.0000
       N       E                     dE             d eps       ncg     rms          rms(c)
DAV:   1    -0.304021692729E+04   -0.34856E-03   -0.58043E-02  5376   0.640E-02    0.108E-01
DAV:   2    -0.304021697921E+04   -0.51915E-04   -0.30617E-03  6336   0.244E-02    0.173E-01
DAV:   3    -0.304021686873E+04    0.11047E-03   -0.22806E-04  6336   0.709E-03    0.107E-01
DAV:   4    -0.304021686535E+04    0.33869E-05   -0.65098E-05  6336   0.335E-03
  75 F= -.30808786E+04 E0= -.30808786E+04  d E =0.211364E-03  mag=    -0.0000
       N       E                     dE             d eps       ncg     rms          rms(c)
DAV:   1    -0.304021691815E+04   -0.49422E-04   -0.54840E-02  5568   0.588E-02    0.873E-02
DAV:   2    -0.304021700660E+04   -0.88445E-04   -0.25450E-03  6336   0.224E-02    0.142E-01
DAV:   3    -0.304021690091E+04    0.10569E-03   -0.26954E-04  6528   0.759E-03    0.730E-02
DAV:   4    -0.304021690914E+04   -0.82356E-05   -0.76706E-05  6528   0.330E-03
  76 F= -.30808788E+04 E0= -.30808788E+04  d E =-.242404E-03  mag=    -0.0000
       N       E                     dE             d eps       ncg     rms          rms(c)
DAV:   1    -0.304021660779E+04    0.29312E-03   -0.52745E-02  5568   0.671E-02    0.709E-02
DAV:   2    -0.304021667755E+04   -0.69762E-04   -0.15459E-03  6528   0.203E-02    0.109E-01
DAV:   3    -0.304021661374E+04    0.63814E-04   -0.19709E-04  6528   0.673E-03    0.538E-02
DAV:   4    -0.304021662114E+04   -0.74041E-05   -0.64518E-05  6720   0.298E-03
  77 F= -.30808787E+04 E0= -.30808787E+04  d E =0.165271E-03  mag=     0.0000
       N       E                     dE             d eps       ncg     rms          rms(c)
DAV:   1    -0.304021703398E+04   -0.42025E-03   -0.52539E-02  5760   0.722E-02    0.617E-02
DAV:   2    -0.304021708773E+04   -0.53750E-04   -0.14887E-03  6720   0.203E-02    0.110E-01
DAV:   3    -0.304021702548E+04    0.62250E-04   -0.16520E-04  6528   0.559E-03    0.618E-02
DAV:   4    -0.304021703446E+04   -0.89775E-05   -0.63820E-05  6720   0.300E-03
  78 F= -.30808788E+04 E0= -.30808788E+04  d E =-.125353E-03  mag=     0.0000
       N       E                     dE             d eps       ncg     rms          rms(c)
DAV:   1    -0.304021702822E+04   -0.27309E-05   -0.52700E-02  5568   0.662E-02    0.479E-02
DAV:   2    -0.304021707484E+04   -0.46623E-04   -0.91341E-04  6336   0.157E-02    0.751E-02
DAV:   3    -0.304021704247E+04    0.32372E-04   -0.88235E-05  6336   0.457E-03    0.374E-02
DAV:   4    -0.304021704424E+04   -0.17736E-05   -0.22062E-05  6336   0.186E-03
  79 F= -.30808787E+04 E0= -.30808787E+04  d E =0.113561E-03  mag=    -0.0000
