       N       E                     dE             d eps       ncg     rms          rms(c)
DAV:   1     0.189051592106E+05    0.18905E+05   -0.79861E+05  6160   0.107E+03
DAV:   2     0.298143934498E+03   -0.18607E+05   -0.17837E+05  7792   0.281E+02
DAV:   3    -0.303910165326E+04   -0.33372E+04   -0.33166E+04  6880   0.125E+02
DAV:   4    -0.313829861274E+04   -0.99197E+02   -0.98762E+02  7008   0.245E+01
DAV:   5    -0.314057210281E+04   -0.22735E+01   -0.22698E+01  7456   0.339E+00    0.196E+02
DAV:   6    -0.153872577957E+04    0.16018E+04   -0.30985E+03  6640   0.448E+01    0.909E+01
DAV:   7    -0.168046832723E+04   -0.14174E+03   -0.30383E+02  7152   0.148E+01    0.639E+01
DAV:   8    -0.168832984840E+04   -0.78615E+01   -0.42786E+01  7184   0.614E+00    0.457E+01
DAV:   9    -0.180795893793E+04   -0.11963E+03   -0.31012E+01  7184   0.539E+00    0.371E+01
DAV:  10    -0.199002771187E+04   -0.18207E+03   -0.43508E+01  7104   0.542E+00    0.330E+01
DAV:  11    -0.215780427451E+04   -0.16778E+03   -0.48039E+01  7200   0.560E+00    0.282E+01
DAV:  12    -0.241919870714E+04   -0.26139E+03   -0.12089E+02  6832   0.807E+00    0.226E+01
DAV:  13    -0.269220879096E+04   -0.27301E+03   -0.17970E+02  6688   0.916E+00    0.166E+01
DAV:  14    -0.286766813234E+04   -0.17546E+03   -0.14728E+02  6816   0.737E+00    0.125E+01
DAV:  15    -0.290589428728E+04   -0.38226E+02   -0.19081E+01  6960   0.290E+00    0.950E+00
DAV:  16    -0.292691494064E+04   -0.21021E+02   -0.67704E+00  6752   0.183E+00    0.797E+00
DAV:  17    -0.293944603101E+04   -0.12531E+02   -0.28339E+00  6896   0.124E+00    0.652E+00
DAV:  18    -0.294865265972E+04   -0.92066E+01   -0.22551E+00  6672   0.106E+00    0.538E+00
DAV:  19    -0.295399771675E+04   -0.53451E+01   -0.14671E+00  6800   0.837E-01    0.458E+00
DAV:  20    -0.295796313735E+04   -0.39654E+01   -0.11496E+00  6656   0.702E-01    0.332E+00
DAV:  21    -0.296234759720E+04   -0.43845E+01   -0.10092E+00  6672   0.607E-01    0.216E+00
DAV:  22    -0.296290758594E+04   -0.55999E+00   -0.28480E-01  6528   0.381E-01    0.161E+00
DAV:  23    -0.296334013029E+04   -0.43254E+00   -0.75752E-02  6784   0.244E-01    0.105E+00
DAV:  24    -0.296530726974E+04   -0.19671E+01   -0.65624E-02  6576   0.256E-01    0.645E-01
DAV:  25    -0.296710794545E+04   -0.18007E+01   -0.29896E-02  6784   0.171E-01    0.385E-01
DAV:  26    -0.296821408167E+04   -0.11061E+01   -0.15346E-02  6944   0.110E-01    0.255E-01
DAV:  27    -0.296892325683E+04   -0.70918E+00   -0.81263E-03  6992   0.791E-02    0.159E-01
DAV:  28    -0.296924254211E+04   -0.31929E+00   -0.38670E-03  7104   0.610E-02    0.789E-02
DAV:  29    -0.296930430961E+04   -0.61768E-01   -0.93274E-04  7136   0.284E-02    0.589E-02
DAV:  30    -0.296932059361E+04   -0.16284E-01   -0.18210E-04  7072   0.135E-02    0.383E-02
DAV:  31    -0.296933041877E+04   -0.98252E-02   -0.16669E-04  6608   0.129E-02    0.182E-02
DAV:  32    -0.296933331824E+04   -0.28995E-02   -0.49605E-05  6272   0.784E-03    0.139E-02
DAV:  33    -0.296933516990E+04   -0.18517E-02   -0.18399E-05  5456   0.494E-03    0.100E-02
DAV:  34    -0.296933714984E+04   -0.19799E-02   -0.15013E-05  5552   0.405E-03    0.701E-03
DAV:  35    -0.296933859475E+04   -0.14449E-02   -0.10218E-05  5232   0.339E-03    0.520E-03
DAV:  36    -0.296933973354E+04   -0.11388E-02   -0.82653E-06  5136   0.273E-03    0.357E-03
DAV:  37    -0.296934045673E+04   -0.72319E-03   -0.58894E-06  5072   0.204E-03    0.269E-03
DAV:  38    -0.296934074983E+04   -0.29310E-03   -0.25582E-06  5008   0.141E-03    0.182E-03
DAV:  39    -0.296934095183E+04   -0.20200E-03   -0.21426E-06  4992   0.121E-03    0.111E-03
DAV:  40    -0.296934105369E+04   -0.10185E-03   -0.15080E-06  4976   0.980E-04    0.727E-04
DAV:  41    -0.296934107989E+04   -0.26202E-04   -0.66937E-07  4992   0.679E-04    0.575E-04
DAV:  42    -0.296934109717E+04   -0.17284E-04   -0.36855E-07  4976   0.497E-04    0.405E-04
DAV:  43    -0.296934110743E+04   -0.10255E-04   -0.18676E-07  4944   0.343E-04    0.314E-04
DAV:  44    -0.296934111088E+04   -0.34555E-05   -0.61581E-08  5008   0.239E-04
   1 F= -.30072741E+04 E0= -.30072741E+04  d E =-.300727E+04  mag=     0.0000
       N       E                     dE             d eps       ncg     rms          rms(c)
DAV:   1    -0.296454460349E+04    0.47965E+01   -0.10699E+03  5824   0.189E+01    0.708E+01
DAV:   2    -0.296949628662E+04   -0.49517E+01   -0.62450E+01  6656   0.440E+00    0.377E+01
DAV:   3    -0.296894612008E+04    0.55017E+00   -0.26047E+00  7104   0.150E+00    0.283E+01
DAV:   4    -0.296901438689E+04   -0.68267E-01   -0.11545E+00  7040   0.991E-01    0.205E+01
DAV:   5    -0.296873699970E+04    0.27739E+00   -0.13319E+00  7408   0.101E+00    0.737E+00
DAV:   6    -0.296863535741E+04    0.10164E+00   -0.39409E-01  7104   0.647E-01    0.151E+00
DAV:   7    -0.296862197867E+04    0.13379E-01   -0.93882E-02  7040   0.294E-01    0.110E+00
DAV:   8    -0.296861900782E+04    0.29708E-02   -0.93463E-03  6976   0.909E-02    0.107E+00
DAV:   9    -0.296861620613E+04    0.28017E-02   -0.58344E-03  7040   0.106E-01    0.854E-01
DAV:  10    -0.296861582061E+04    0.38552E-03   -0.37772E-03  6976   0.717E-02    0.259E-01
DAV:  11    -0.296861582898E+04   -0.83657E-05   -0.10554E-03  6976   0.451E-02    0.153E-01
DAV:  12    -0.296861596774E+04   -0.13877E-03   -0.19185E-04  6848   0.183E-02    0.105E-01
DAV:  13    -0.296861614634E+04   -0.17859E-03   -0.65935E-05  6048   0.195E-02    0.576E-02
DAV:  14    -0.296861658329E+04   -0.43695E-03   -0.33078E-04  6816   0.581E-02    0.385E-02
DAV:  15    -0.296861670093E+04   -0.11764E-03   -0.32719E-04  7072   0.144E-02    0.258E-02
DAV:  16    -0.296861680210E+04   -0.10116E-03   -0.12992E-05  5136   0.633E-03    0.189E-02
DAV:  17    -0.296861698198E+04   -0.17988E-03   -0.69510E-06  4864   0.778E-03    0.133E-02
DAV:  18    -0.296861728077E+04   -0.29880E-03   -0.17889E-05  5440   0.114E-02    0.756E-03
DAV:  19    -0.296861736287E+04   -0.82095E-04   -0.26552E-05  6400   0.545E-03    0.703E-03
DAV:  20    -0.296861740112E+04   -0.38250E-04   -0.20104E-06  4928   0.153E-03    0.628E-03
DAV:  21    -0.296861746944E+04   -0.68325E-04   -0.97013E-07  4768   0.208E-03    0.409E-03
DAV:  22    -0.296861754204E+04   -0.72595E-04   -0.23944E-06  4864   0.194E-03    0.204E-03
DAV:  23    -0.296861757034E+04   -0.28299E-04   -0.96450E-07  4864   0.120E-03    0.233E-03
DAV:  24    -0.296861757186E+04   -0.15227E-05   -0.21058E-07  4992   0.443E-04
   2 F= -.30064904E+04 E0= -.30064904E+04  d E =0.783710E+00  mag=     0.0000
       N       E                     dE             d eps       ncg     rms          rms(c)
DAV:   1    -0.297079861198E+04   -0.21810E+01   -0.32333E+02  5696   0.113E+01    0.271E+01
DAV:   2    -0.297194816323E+04   -0.11496E+01   -0.16431E+01  7072   0.263E+00    0.110E+01
DAV:   3    -0.297179900274E+04    0.14916E+00   -0.11547E+00  6880   0.866E-01    0.685E+00
DAV:   4    -0.297190201704E+04   -0.10301E+00   -0.10228E+00  6944   0.762E-01    0.633E+00
DAV:   5    -0.297169104625E+04    0.21097E+00   -0.44977E-01  7072   0.559E-01    0.241E+00
DAV:   6    -0.297168151154E+04    0.95347E-02   -0.10333E-01  7328   0.304E-01    0.109E+00
DAV:   7    -0.297167511874E+04    0.63928E-02   -0.56530E-02  6912   0.211E-01    0.754E-01
DAV:   8    -0.297167274488E+04    0.23739E-02   -0.72987E-03  7008   0.889E-02    0.317E-01
DAV:   9    -0.297167248872E+04    0.25616E-03   -0.22731E-03  6976   0.519E-02    0.238E-01
DAV:  10    -0.297167233812E+04    0.15060E-03   -0.79908E-04  6912   0.362E-02    0.990E-02
DAV:  11    -0.297167242716E+04   -0.89036E-04   -0.25447E-04  6784   0.283E-02    0.574E-02
DAV:  12    -0.297167250531E+04   -0.78157E-04   -0.18023E-04  6944   0.153E-02    0.439E-02
DAV:  13    -0.297167258814E+04   -0.82830E-04   -0.22644E-05  6208   0.510E-03    0.273E-02
DAV:  14    -0.297167280766E+04   -0.21952E-03   -0.42935E-05  6240   0.180E-02    0.145E-02
DAV:  15    -0.297167285227E+04   -0.44610E-04   -0.25141E-05  6240   0.411E-03    0.776E-03
DAV:  16    -0.297167289736E+04   -0.45083E-04   -0.16942E-06  4800   0.321E-03    0.693E-03
DAV:  17    -0.297167296584E+04   -0.68484E-04   -0.31108E-06  4960   0.423E-03    0.494E-03
DAV:  18    -0.297167303371E+04   -0.67870E-04   -0.53964E-06  4928   0.418E-03    0.365E-03
DAV:  19    -0.297167305355E+04   -0.19834E-04   -0.32933E-06  4912   0.198E-03    0.236E-03
DAV:  20    -0.297167307038E+04   -0.16833E-04   -0.72669E-07  4864   0.928E-04    0.156E-03
DAV:  21    -0.297167309955E+04   -0.29173E-04   -0.84023E-07  4864   0.129E-03    0.115E-03
DAV:  22    -0.297167311447E+04   -0.14917E-04   -0.60976E-07  4928   0.106E-03    0.935E-04
DAV:  23    -0.297167312606E+04   -0.11594E-04   -0.38511E-07  4896   0.590E-04    0.116E-03
DAV:  24    -0.297167313081E+04   -0.47502E-05   -0.98905E-08  4864   0.276E-04
   3 F= -.30096058E+04 E0= -.30096058E+04  d E =-.233174E+01  mag=     0.0000
       N       E                     dE             d eps       ncg     rms          rms(c)
DAV:   1    -0.297087304251E+04    0.80008E+00   -0.53143E+02  5696   0.162E+01    0.127E+01
DAV:   2    -0.297224495291E+04   -0.13719E+01   -0.19329E+01  7008   0.282E+00    0.616E+00
DAV:   3    -0.297211720391E+04    0.12775E+00   -0.86828E-01  7104   0.791E-01    0.470E+00
DAV:   4    -0.297208344474E+04    0.33759E-01   -0.15508E-01  6864   0.420E-01    0.358E+00
DAV:   5    -0.297203788605E+04    0.45559E-01   -0.17666E-01  7040   0.451E-01    0.134E+00
DAV:   6    -0.297202662607E+04    0.11260E-01   -0.51779E-02  7280   0.293E-01    0.613E-01
DAV:   7    -0.297202702855E+04   -0.40249E-03   -0.42669E-02  6976   0.201E-01    0.475E-01
DAV:   8    -0.297202613159E+04    0.89697E-03   -0.74899E-03  6912   0.761E-02    0.271E-01
DAV:   9    -0.297202543845E+04    0.69314E-03   -0.19248E-03  6848   0.532E-02    0.143E-01
DAV:  10    -0.297202547021E+04   -0.31764E-04   -0.12530E-03  6864   0.439E-02    0.906E-02
DAV:  11    -0.297202546858E+04    0.16296E-05   -0.27728E-04  6928   0.342E-02    0.414E-02
DAV:  12    -0.297202556923E+04   -0.10065E-03   -0.30691E-04  6880   0.196E-02    0.287E-02
DAV:  13    -0.297202562661E+04   -0.57373E-04   -0.24473E-05  5648   0.729E-03    0.242E-02
DAV:  14    -0.297202578341E+04   -0.15680E-03   -0.19758E-05  5312   0.174E-02    0.128E-02
DAV:  15    -0.297202593071E+04   -0.14730E-03   -0.38359E-05  6208   0.161E-02    0.945E-03
DAV:  16    -0.297202598186E+04   -0.51153E-04   -0.38177E-05  6448   0.630E-03    0.747E-03
DAV:  17    -0.297202603050E+04   -0.48642E-04   -0.10932E-06  4768   0.379E-03    0.584E-03
DAV:  18    -0.297202612676E+04   -0.96258E-04   -0.33376E-06  4896   0.509E-03    0.394E-03
DAV:  19    -0.297202616705E+04   -0.40293E-04   -0.58152E-06  4864   0.306E-03    0.258E-03
DAV:  20    -0.297202617842E+04   -0.11371E-04   -0.16696E-06  4928   0.128E-03    0.276E-03
DAV:  21    -0.297202618817E+04   -0.97452E-05   -0.29822E-07  4800   0.657E-04
   4 F= -.30099168E+04 E0= -.30099168E+04  d E =-.310980E+00  mag=     0.0000
       N       E                     dE             d eps       ncg     rms          rms(c)
DAV:   1    -0.297256622241E+04   -0.54004E+00   -0.10127E+02  5696   0.724E+00    0.476E+00
DAV:   2    -0.297278767651E+04   -0.22145E+00   -0.35030E+00  7040   0.135E+00    0.206E+00
DAV:   3    -0.297276664227E+04    0.21034E-01   -0.19503E-01  7008   0.346E-01    0.130E+00
DAV:   4    -0.297276149863E+04    0.51436E-02   -0.66234E-02  6912   0.249E-01    0.109E+00
DAV:   5    -0.297275229964E+04    0.91990E-02   -0.48311E-02  6976   0.197E-01    0.480E-01
DAV:   6    -0.297274945454E+04    0.28451E-02   -0.10285E-02  7104   0.109E-01    0.264E-01
DAV:   7    -0.297274912866E+04    0.32588E-03   -0.43196E-03  6928   0.601E-02    0.189E-01
DAV:   8    -0.297274890572E+04    0.22294E-03   -0.58883E-04  6816   0.310E-02    0.988E-02
DAV:   9    -0.297274879633E+04    0.10940E-03   -0.27102E-04  6912   0.328E-02    0.477E-02
DAV:  10    -0.297274878402E+04    0.12309E-04   -0.22325E-04  7136   0.205E-02    0.259E-02
DAV:  11    -0.297274879390E+04   -0.98851E-05   -0.64976E-05  6912   0.114E-02
   5 F= -.30106551E+04 E0= -.30106551E+04  d E =-.104929E+01  mag=     0.0000
       N       E                     dE             d eps       ncg     rms          rms(c)
DAV:   1    -0.297260572920E+04    0.14305E+00   -0.33784E+02  5696   0.125E+01    0.850E+00
DAV:   2    -0.297335517785E+04   -0.74945E+00   -0.96709E+00  6880   0.217E+00    0.528E+00
DAV:   3    -0.297326670679E+04    0.88471E-01   -0.46905E-01  7136   0.648E-01    0.296E+00
DAV:   4    -0.297325335962E+04    0.13347E-01   -0.14540E-01  6944   0.389E-01    0.292E+00
DAV:   5    -0.297320679566E+04    0.46564E-01   -0.11604E-01  6976   0.386E-01    0.860E-01
DAV:   6    -0.297320413689E+04    0.26588E-02   -0.41498E-02  7072   0.227E-01    0.510E-01
DAV:   7    -0.297320295104E+04    0.11859E-02   -0.12414E-02  6912   0.106E-01    0.382E-01
DAV:   8    -0.297320229174E+04    0.65930E-03   -0.18202E-03  6912   0.499E-02    0.250E-01
DAV:   9    -0.297320196022E+04    0.33153E-03   -0.15455E-03  7136   0.523E-02    0.146E-01
DAV:  10    -0.297320169878E+04    0.26143E-03   -0.99259E-04  7168   0.415E-02    0.536E-02
DAV:  11    -0.297320169325E+04    0.55378E-05   -0.28535E-04  7184   0.287E-02    0.347E-02
DAV:  12    -0.297320172952E+04   -0.36276E-04   -0.12895E-04  7008   0.118E-02    0.357E-02
DAV:  13    -0.297320175251E+04   -0.22988E-04   -0.99454E-06  5008   0.501E-03    0.246E-02
DAV:  14    -0.297320186014E+04   -0.10763E-03   -0.56397E-05  6464   0.209E-02    0.119E-02
DAV:  15    -0.297320190487E+04   -0.44722E-04   -0.37783E-05  6368   0.102E-02    0.104E-02
DAV:  16    -0.297320193084E+04   -0.25977E-04   -0.25559E-05  6496   0.493E-03    0.684E-03
DAV:  17    -0.297320196449E+04   -0.33646E-04   -0.14943E-06  4736   0.381E-03    0.504E-03
DAV:  18    -0.297320201363E+04   -0.49139E-04   -0.30854E-06  4864   0.356E-03    0.367E-03
DAV:  19    -0.297320205480E+04   -0.41169E-04   -0.24783E-06  4768   0.378E-03    0.368E-03
DAV:  20    -0.297320206364E+04   -0.88426E-05   -0.36901E-06  4976   0.186E-03
   6 F= -.30111182E+04 E0= -.30111182E+04  d E =-.463119E+00  mag=     0.0000
       N       E                     dE             d eps       ncg     rms          rms(c)
DAV:   1    -0.297323831729E+04   -0.36262E-01   -0.33438E+01  5696   0.396E+00    0.197E+00
DAV:   2    -0.297329990619E+04   -0.61589E-01   -0.83506E-01  6848   0.634E-01    0.131E+00
DAV:   3    -0.297329340028E+04    0.65059E-02   -0.39133E-02  7040   0.182E-01    0.667E-01
DAV:   4    -0.297329165211E+04    0.17482E-02   -0.16631E-02  6816   0.129E-01    0.677E-01
DAV:   5    -0.297328845455E+04    0.31976E-02   -0.15007E-02  6880   0.115E-01    0.318E-01
DAV:   6    -0.297328750776E+04    0.94680E-03   -0.53591E-03  6880   0.694E-02    0.152E-01
DAV:   7    -0.297328734652E+04    0.16124E-03   -0.11863E-03  6944   0.356E-02    0.108E-01
DAV:   8    -0.297328729308E+04    0.53436E-04   -0.18852E-04  6848   0.156E-02    0.638E-02
DAV:   9    -0.297328725873E+04    0.34346E-04   -0.69318E-05  6496   0.151E-02    0.329E-02
DAV:  10    -0.297328725466E+04    0.40779E-05   -0.46743E-05  6688   0.137E-02
   7 F= -.30112112E+04 E0= -.30112112E+04  d E =-.556121E+00  mag=     0.0000
       N       E                     dE             d eps       ncg     rms          rms(c)
DAV:   1    -0.297344686239E+04   -0.15960E+00   -0.14213E+02  5696   0.875E+00    0.521E+00
DAV:   2    -0.297382516558E+04   -0.37830E+00   -0.45490E+00  6912   0.149E+00    0.416E+00
DAV:   3    -0.297378200473E+04    0.43161E-01   -0.22458E-01  6816   0.400E-01    0.220E+00
DAV:   4    -0.297379490159E+04   -0.12897E-01   -0.12748E-01  6816   0.295E-01    0.253E+00
DAV:   5    -0.297376287249E+04    0.32029E-01   -0.12271E-01  6848   0.266E-01    0.100E+00
DAV:   6    -0.297375667333E+04    0.61992E-02   -0.32626E-02  6816   0.144E-01    0.357E-01
DAV:   7    -0.297375601572E+04    0.65761E-03   -0.40927E-03  6944   0.670E-02    0.275E-01
DAV:   8    -0.297375591073E+04    0.10499E-03   -0.57466E-04  6880   0.234E-02    0.171E-01
DAV:   9    -0.297375586617E+04    0.44566E-04   -0.50901E-04  7008   0.243E-02    0.869E-02
DAV:  10    -0.297375585313E+04    0.13034E-04   -0.35655E-04  7168   0.204E-02    0.422E-02
DAV:  11    -0.297375587815E+04   -0.25017E-04   -0.86905E-05  6912   0.103E-02    0.329E-02
DAV:  12    -0.297375588833E+04   -0.10181E-04   -0.94411E-06  5344   0.299E-03    0.270E-02
DAV:  13    -0.297375590520E+04   -0.16871E-04   -0.13208E-06  4816   0.157E-03    0.223E-02
DAV:  14    -0.297375599288E+04   -0.87684E-04   -0.13280E-05  5120   0.958E-03    0.965E-03
DAV:  15    -0.297375600666E+04   -0.13780E-04   -0.89188E-06  5120   0.307E-03    0.819E-03
DAV:  16    -0.297375601328E+04   -0.66200E-05   -0.21820E-06  4864   0.160E-03
   8 F= -.30116563E+04 E0= -.30116563E+04  d E =-.445015E+00  mag=     0.0000
       N       E                     dE             d eps       ncg     rms          rms(c)
DAV:   1    -0.297375606287E+04   -0.56206E-04   -0.13550E-04  6400   0.839E-03    0.613E-03
DAV:   2    -0.297375607707E+04   -0.14201E-04   -0.43603E-06  4928   0.210E-03    0.476E-03
DAV:   3    -0.297375608554E+04   -0.84637E-05   -0.93014E-07  4832   0.116E-03    0.213E-03
DAV:   4    -0.297375609685E+04   -0.11310E-04   -0.30910E-07  4832   0.991E-04    0.210E-03
DAV:   5    -0.297375610874E+04   -0.11894E-04   -0.33349E-07  4832   0.944E-04    0.134E-03
DAV:   6    -0.297375611689E+04   -0.81475E-05   -0.22016E-07  4800   0.792E-04
   9 F= -.30116563E+04 E0= -.30116563E+04  d E =-.445080E+00  mag=     0.0000
       N       E                     dE             d eps       ncg     rms          rms(c)
DAV:   1    -0.297395787534E+04   -0.20177E+00   -0.71722E+01  5696   0.612E+00    0.290E+00
DAV:   2    -0.297413487096E+04   -0.17700E+00   -0.20950E+00  6848   0.997E-01    0.212E+00
DAV:   3    -0.297412003088E+04    0.14840E-01   -0.93227E-02  6848   0.248E-01    0.115E+00
DAV:   4    -0.297412116703E+04   -0.11362E-02   -0.60363E-02  6688   0.188E-01    0.129E+00
DAV:   5    -0.297410987656E+04    0.11290E-01   -0.47353E-02  6752   0.168E-01    0.491E-01
DAV:   6    -0.297410861691E+04    0.12596E-02   -0.11534E-02  6816   0.859E-02    0.207E-01
DAV:   7    -0.297410824081E+04    0.37611E-03   -0.18108E-03  6944   0.410E-02    0.152E-01
DAV:   8    -0.297410820992E+04    0.30887E-04   -0.22527E-04  6784   0.137E-02    0.866E-02
DAV:   9    -0.297410819456E+04    0.15358E-04   -0.19783E-04  6528   0.142E-02    0.489E-02
DAV:  10    -0.297410819049E+04    0.40732E-05   -0.11165E-04  7008   0.105E-02    0.195E-02
DAV:  11    -0.297410820027E+04   -0.97818E-05   -0.17642E-05  5728   0.461E-03
  10 F= -.30119769E+04 E0= -.30119769E+04  d E =-.320607E+00  mag=     0.0000
       N       E                     dE             d eps       ncg     rms          rms(c)
DAV:   1    -0.297412965547E+04   -0.21465E-01   -0.98673E+00  5696   0.231E+00    0.971E-01
DAV:   2    -0.297415284047E+04   -0.23185E-01   -0.27611E-01  6912   0.368E-01    0.737E-01
DAV:   3    -0.297415091278E+04    0.19277E-02   -0.11905E-02  6816   0.886E-02    0.372E-01
DAV:   4    -0.297415103469E+04   -0.12190E-03   -0.79827E-03  6720   0.702E-02    0.441E-01
DAV:   5    -0.297414959416E+04    0.14405E-02   -0.62084E-03  6752   0.610E-02    0.162E-01
DAV:   6    -0.297414945323E+04    0.14092E-03   -0.12986E-03  6752   0.292E-02    0.683E-02
DAV:   7    -0.297414942614E+04    0.27092E-04   -0.19213E-04  6976   0.136E-02    0.538E-02
DAV:   8    -0.297414942950E+04   -0.33559E-05   -0.25504E-05  6048   0.494E-03
  11 F= -.30120015E+04 E0= -.30120015E+04  d E =-.345175E+00  mag=     0.0000
       N       E                     dE             d eps       ncg     rms          rms(c)
DAV:   1    -0.297423072329E+04   -0.81297E-01   -0.68524E+01  5696   0.588E+00    0.281E+00
DAV:   2    -0.297437978485E+04   -0.14906E+00   -0.18024E+00  6880   0.918E-01    0.180E+00
DAV:   3    -0.297436940972E+04    0.10375E-01   -0.59095E-02  7040   0.214E-01    0.104E+00
DAV:   4    -0.297437076485E+04   -0.13551E-02   -0.43541E-02  6752   0.173E-01    0.116E+00
DAV:   5    -0.297436143410E+04    0.93307E-02   -0.35996E-02  6784   0.145E-01    0.412E-01
DAV:   6    -0.297436063912E+04    0.79498E-03   -0.83486E-03  6848   0.794E-02    0.212E-01
DAV:   7    -0.297436033694E+04    0.30218E-03   -0.16941E-03  6944   0.436E-02    0.156E-01
DAV:   8    -0.297436028431E+04    0.52627E-04   -0.23114E-04  6784   0.146E-02    0.953E-02
DAV:   9    -0.297436026389E+04    0.20421E-04   -0.16544E-04  6752   0.133E-02    0.524E-02
DAV:  10    -0.297436026082E+04    0.30724E-05   -0.10557E-04  6816   0.107E-02    0.197E-02
DAV:  11    -0.297436027314E+04   -0.12315E-04   -0.21369E-05  5600   0.617E-03    0.142E-02
DAV:  12    -0.297436028282E+04   -0.96872E-05   -0.50311E-06  4992   0.263E-03
  12 F= -.30122334E+04 E0= -.30122334E+04  d E =-.231850E+00  mag=     0.0000
       N       E                     dE             d eps       ncg     rms          rms(c)
DAV:   1    -0.297436507154E+04   -0.47984E-02   -0.16262E+00  5760   0.914E-01    0.391E-01
DAV:   2    -0.297436845438E+04   -0.33828E-02   -0.41456E-02  6912   0.141E-01    0.276E-01
DAV:   3    -0.297436820242E+04    0.25196E-03   -0.12599E-03  7072   0.323E-02    0.145E-01
DAV:   4    -0.297436822637E+04   -0.23950E-04   -0.90184E-04  6720   0.270E-02    0.174E-01
DAV:   5    -0.297436804687E+04    0.17950E-03   -0.84944E-04  6688   0.231E-02    0.601E-02
DAV:   6    -0.297436802951E+04    0.17364E-04   -0.19479E-04  6848   0.122E-02    0.309E-02
DAV:   7    -0.297436802835E+04    0.11551E-05   -0.33314E-05  6624   0.627E-03
  13 F= -.30122401E+04 E0= -.30122401E+04  d E =-.238602E+00  mag=     0.0000
       N       E                     dE             d eps       ncg     rms          rms(c)
DAV:   1    -0.297448432410E+04   -0.11629E+00   -0.26799E+01  5696   0.391E+00    0.193E+00
DAV:   2    -0.297454289918E+04   -0.58575E-01   -0.74398E-01  7008   0.626E-01    0.829E-01
DAV:   3    -0.297453709600E+04    0.58032E-02   -0.15899E-02  7168   0.124E-01    0.547E-01
DAV:   4    -0.297453640528E+04    0.69073E-03   -0.11763E-02  6880   0.101E-01    0.469E-01
DAV:   5    -0.297453411752E+04    0.22878E-02   -0.10117E-02  7040   0.863E-02    0.176E-01
DAV:   6    -0.297453390755E+04    0.20997E-03   -0.23137E-03  6848   0.470E-02    0.108E-01
DAV:   7    -0.297453384153E+04    0.66027E-04   -0.40635E-04  6912   0.212E-02    0.857E-02
DAV:   8    -0.297453380092E+04    0.40603E-04   -0.56537E-05  6400   0.889E-03    0.502E-02
DAV:   9    -0.297453378485E+04    0.16078E-04   -0.56821E-05  6464   0.116E-02    0.244E-02
DAV:  10    -0.297453378429E+04    0.55187E-06   -0.38032E-05  6496   0.812E-03
  14 F= -.30124324E+04 E0= -.30124324E+04  d E =-.192305E+00  mag=     0.0000
       N       E                     dE             d eps       ncg     rms          rms(c)
DAV:   1    -0.297450338309E+04    0.30402E-01   -0.18068E+01  5696   0.318E+00    0.157E+00
DAV:   2    -0.297454252578E+04   -0.39143E-01   -0.49812E-01  7072   0.507E-01    0.688E-01
DAV:   3    -0.297453855784E+04    0.39679E-02   -0.10368E-02  7136   0.101E-01    0.450E-01
DAV:   4    -0.297453802234E+04    0.53550E-03   -0.78660E-03  6944   0.843E-02    0.380E-01
DAV:   5    -0.297453654017E+04    0.14822E-02   -0.67448E-03  6944   0.715E-02    0.144E-01
DAV:   6    -0.297453638645E+04    0.15372E-03   -0.14250E-03  6848   0.387E-02    0.877E-02
DAV:   7    -0.297453635427E+04    0.32181E-04   -0.24843E-04  6912   0.169E-02    0.707E-02
DAV:   8    -0.297453633175E+04    0.22519E-04   -0.34130E-05  6080   0.756E-03    0.417E-02
DAV:   9    -0.297453633076E+04    0.98802E-06   -0.44416E-05  6240   0.110E-02
  15 F= -.30124659E+04 E0= -.30124659E+04  d E =-.225796E+00  mag=     0.0000
       N       E                     dE             d eps       ncg     rms          rms(c)
DAV:   1    -0.297454492502E+04   -0.85933E-02   -0.14084E+00  5696   0.881E-01    0.424E-01
DAV:   2    -0.297454798012E+04   -0.30551E-02   -0.38606E-02  7008   0.141E-01    0.189E-01
DAV:   3    -0.297454769638E+04    0.28373E-03   -0.73822E-04  7072   0.265E-02    0.119E-01
DAV:   4    -0.297454766100E+04    0.35379E-04   -0.55097E-04  6848   0.229E-02    0.932E-02
DAV:   5    -0.297454760513E+04    0.55874E-04   -0.41878E-04  7040   0.171E-02    0.398E-02
DAV:   6    -0.297454760049E+04    0.46365E-05   -0.81793E-05  6432   0.796E-03
  16 F= -.30124709E+04 E0= -.30124709E+04  d E =-.230791E+00  mag=     0.0000
       N       E                     dE             d eps       ncg     rms          rms(c)
DAV:   1    -0.297460454116E+04   -0.56936E-01   -0.13148E+01  5696   0.254E+00    0.116E+00
DAV:   2    -0.297463223118E+04   -0.27690E-01   -0.33856E-01  6880   0.393E-01    0.637E-01
DAV:   3    -0.297463035854E+04    0.18726E-02   -0.78409E-03  7040   0.781E-02    0.393E-01
DAV:   4    -0.297462996708E+04    0.39146E-03   -0.29443E-03  6880   0.541E-02    0.351E-01
DAV:   5    -0.297462926209E+04    0.70499E-03   -0.26035E-03  6880   0.469E-02    0.112E-01
DAV:   6    -0.297462927396E+04   -0.11869E-04   -0.86305E-04  6912   0.274E-02    0.853E-02
DAV:   7    -0.297462923951E+04    0.34453E-04   -0.27298E-04  6784   0.146E-02    0.633E-02
DAV:   8    -0.297462922635E+04    0.13158E-04   -0.28221E-05  5792   0.536E-03    0.391E-02
DAV:   9    -0.297462922283E+04    0.35210E-05   -0.30959E-05  5920   0.692E-03
  17 F= -.30125688E+04 E0= -.30125688E+04  d E =-.979496E-01  mag=     0.0000
       N       E                     dE             d eps       ncg     rms          rms(c)
DAV:   1    -0.297464551316E+04   -0.16287E-01   -0.40549E+00  5696   0.141E+00    0.647E-01
DAV:   2    -0.297465406964E+04   -0.85565E-02   -0.10485E-01  6880   0.218E-01    0.351E-01
DAV:   3    -0.297465349886E+04    0.57078E-03   -0.23884E-03  7008   0.430E-02    0.217E-01
DAV:   4    -0.297465337823E+04    0.12063E-03   -0.88584E-04  6848   0.301E-02    0.192E-01
DAV:   5    -0.297465317280E+04    0.20543E-03   -0.74328E-04  6816   0.260E-02    0.566E-02
DAV:   6    -0.297465317769E+04   -0.48880E-05   -0.21321E-04  6944   0.151E-02    0.434E-02
DAV:   7    -0.297465317536E+04    0.23341E-05   -0.76657E-05  6720   0.776E-03
  18 F= -.30125904E+04 E0= -.30125904E+04  d E =-.119476E+00  mag=     0.0000
       N       E                     dE             d eps       ncg     rms          rms(c)
DAV:   1    -0.297462319303E+04    0.29985E-01   -0.16218E+01  5696   0.283E+00    0.133E+00
DAV:   2    -0.297465762331E+04   -0.34430E-01   -0.42111E-01  6880   0.438E-01    0.699E-01
DAV:   3    -0.297465535976E+04    0.22636E-02   -0.94255E-03  7008   0.856E-02    0.433E-01
DAV:   4    -0.297465489209E+04    0.46767E-03   -0.35824E-03  6816   0.605E-02    0.381E-01
DAV:   5    -0.297465405990E+04    0.83218E-03   -0.28985E-03  6848   0.512E-02    0.114E-01
DAV:   6    -0.297465407128E+04   -0.11375E-04   -0.84808E-04  6944   0.296E-02    0.862E-02
DAV:   7    -0.297465405140E+04    0.19878E-04   -0.29944E-04  6784   0.153E-02    0.682E-02
DAV:   8    -0.297465403683E+04    0.14572E-04   -0.39516E-05  5952   0.617E-03    0.417E-02
DAV:   9    -0.297465404109E+04   -0.42596E-05   -0.35523E-05  5952   0.770E-03
  19 F= -.30125838E+04 E0= -.30125838E+04  d E =-.112917E+00  mag=     0.0000
       N       E                     dE             d eps       ncg     rms          rms(c)
DAV:   1    -0.297465018039E+04    0.38564E-02   -0.58029E+00  5696   0.169E+00    0.759E-01
DAV:   2    -0.297466246986E+04   -0.12289E-01   -0.15059E-01  6912   0.261E-01    0.418E-01
DAV:   3    -0.297466169297E+04    0.77690E-03   -0.33808E-03  7008   0.505E-02    0.255E-01
DAV:   4    -0.297466153446E+04    0.15850E-03   -0.12296E-03  6880   0.354E-02    0.227E-01
DAV:   5    -0.297466126490E+04    0.26956E-03   -0.94504E-04  6912   0.290E-02    0.627E-02
DAV:   6    -0.297466126949E+04   -0.45839E-05   -0.19865E-04  6816   0.154E-02    0.460E-02
DAV:   7    -0.297466127169E+04   -0.21974E-05   -0.59107E-05  6912   0.718E-03
  20 F= -.30125956E+04 E0= -.30125956E+04  d E =-.124752E+00  mag=     0.0000
       N       E                     dE             d eps       ncg     rms          rms(c)
DAV:   1    -0.297475688546E+04   -0.95616E-01   -0.67686E+00  5696   0.196E+00    0.993E-01
DAV:   2    -0.297477086506E+04   -0.13980E-01   -0.19428E-01  6944   0.332E-01    0.545E-01
DAV:   3    -0.297476897162E+04    0.18934E-02   -0.73212E-03  7040   0.835E-02    0.332E-01
DAV:   4    -0.297476852587E+04    0.44575E-03   -0.42465E-03  6848   0.621E-02    0.300E-01
DAV:   5    -0.297476771897E+04    0.80689E-03   -0.33869E-03  6720   0.551E-02    0.120E-01
DAV:   6    -0.297476762422E+04    0.94757E-04   -0.10944E-03  6848   0.316E-02    0.726E-02
DAV:   7    -0.297476757375E+04    0.50472E-04   -0.20766E-04  6880   0.160E-02    0.494E-02
DAV:   8    -0.297476756493E+04    0.88136E-05   -0.25013E-05  6176   0.589E-03
  21 F= -.30126989E+04 E0= -.30126989E+04  d E =-.103294E+00  mag=     0.0000
       N       E                     dE             d eps       ncg     rms          rms(c)
DAV:   1    -0.297479337811E+04   -0.25804E-01   -0.62381E+00  5696   0.189E+00    0.960E-01
DAV:   2    -0.297480644749E+04   -0.13069E-01   -0.18163E-01  7072   0.323E-01    0.516E-01
DAV:   3    -0.297480469430E+04    0.17532E-02   -0.66561E-03  7072   0.808E-02    0.315E-01
DAV:   4    -0.297480426243E+04    0.43187E-03   -0.36589E-03  6816   0.594E-02    0.285E-01
DAV:   5    -0.297480351655E+04    0.74588E-03   -0.29272E-03  6752   0.538E-02    0.109E-01
DAV:   6    -0.297480344494E+04    0.71616E-04   -0.10274E-03  6848   0.316E-02    0.725E-02
DAV:   7    -0.297480339493E+04    0.50002E-04   -0.21658E-04  6784   0.161E-02    0.481E-02
DAV:   8    -0.297480338848E+04    0.64572E-05   -0.22615E-05  6048   0.604E-03
  22 F= -.30127311E+04 E0= -.30127311E+04  d E =-.135453E+00  mag=     0.0000
       N       E                     dE             d eps       ncg     rms          rms(c)
DAV:   1    -0.297487342258E+04   -0.70028E-01   -0.70934E+00  5696   0.193E+00    0.946E-01
DAV:   2    -0.297488896659E+04   -0.15544E-01   -0.19797E-01  6880   0.318E-01    0.537E-01
DAV:   3    -0.297488739907E+04    0.15675E-02   -0.73937E-03  7040   0.800E-02    0.364E-01
DAV:   4    -0.297488714280E+04    0.25627E-03   -0.43820E-03  6784   0.576E-02    0.301E-01
DAV:   5    -0.297488634706E+04    0.79574E-03   -0.33572E-03  6816   0.485E-02    0.128E-01
DAV:   6    -0.297488627737E+04    0.69686E-04   -0.95553E-04  6912   0.297E-02    0.738E-02
DAV:   7    -0.297488624197E+04    0.35399E-04   -0.18730E-04  6912   0.147E-02    0.518E-02
DAV:   8    -0.297488624013E+04    0.18486E-05   -0.23493E-05  5920   0.469E-03
  23 F= -.30128110E+04 E0= -.30128110E+04  d E =-.799075E-01  mag=     0.0000
       N       E                     dE             d eps       ncg     rms          rms(c)
DAV:   1    -0.297489917741E+04   -0.12935E-01   -0.27566E+00  5696   0.121E+00    0.591E-01
DAV:   2    -0.297490520846E+04   -0.60311E-02   -0.76880E-02  6848   0.198E-01    0.334E-01
DAV:   3    -0.297490460959E+04    0.59887E-03   -0.27814E-03  7040   0.501E-02    0.224E-01
DAV:   4    -0.297490451739E+04    0.92201E-04   -0.16887E-03  6784   0.363E-02    0.187E-01
DAV:   5    -0.297490420442E+04    0.31298E-03   -0.13405E-03  6560   0.319E-02    0.803E-02
DAV:   6    -0.297490417396E+04    0.30456E-04   -0.38336E-04  6784   0.201E-02    0.453E-02
DAV:   7    -0.297490416332E+04    0.10636E-04   -0.81261E-05  6976   0.993E-03    0.325E-02
DAV:   8    -0.297490416509E+04   -0.17647E-05   -0.86543E-06  5152   0.326E-03
  24 F= -.30128255E+04 E0= -.30128255E+04  d E =-.943773E-01  mag=     0.0000
       N       E                     dE             d eps       ncg     rms          rms(c)
DAV:   1    -0.297494474413E+04   -0.40581E-01   -0.38743E+00  5696   0.153E+00    0.745E-01
DAV:   2    -0.297495396109E+04   -0.92170E-02   -0.11946E-01  6976   0.262E-01    0.568E-01
DAV:   3    -0.297495267236E+04    0.12887E-02   -0.54722E-03  6784   0.693E-02    0.256E-01
DAV:   4    -0.297495242664E+04    0.24572E-03   -0.21035E-03  6784   0.487E-02    0.296E-01
DAV:   5    -0.297495185603E+04    0.57061E-03   -0.20044E-03  6816   0.412E-02    0.103E-01
DAV:   6    -0.297495178948E+04    0.66549E-04   -0.74321E-04  6880   0.238E-02    0.594E-02
DAV:   7    -0.297495175935E+04    0.30133E-04   -0.12588E-04  6976   0.118E-02    0.376E-02
DAV:   8    -0.297495175494E+04    0.44143E-05   -0.14400E-05  5792   0.388E-03
  25 F= -.30128726E+04 E0= -.30128726E+04  d E =-.471020E-01  mag=     0.0000
       N       E                     dE             d eps       ncg     rms          rms(c)
DAV:   1    -0.297496196545E+04   -0.10206E-01   -0.31822E+00  5696   0.138E+00    0.677E-01
DAV:   2    -0.297496951419E+04   -0.75487E-02   -0.98429E-02  7008   0.238E-01    0.519E-01
DAV:   3    -0.297496846961E+04    0.10446E-02   -0.44419E-03  6816   0.626E-02    0.234E-01
DAV:   4    -0.297496826027E+04    0.20934E-03   -0.16797E-03  6816   0.441E-02    0.270E-01
DAV:   5    -0.297496779022E+04    0.47005E-03   -0.16482E-03  6784   0.377E-02    0.932E-02
DAV:   6    -0.297496773334E+04    0.56876E-04   -0.62178E-04  6880   0.219E-02    0.548E-02
DAV:   7    -0.297496770723E+04    0.26111E-04   -0.10783E-04  6816   0.110E-02    0.349E-02
DAV:   8    -0.297496770326E+04    0.39641E-05   -0.12066E-05  5600   0.378E-03
  26 F= -.30128875E+04 E0= -.30128875E+04  d E =-.620287E-01  mag=     0.0000
       N       E                     dE             d eps       ncg     rms          rms(c)
DAV:   1    -0.297500296729E+04   -0.35260E-01   -0.46600E+00  5696   0.164E+00    0.755E-01
DAV:   2    -0.297501416087E+04   -0.11194E-01   -0.14033E-01  6880   0.281E-01    0.644E-01
DAV:   3    -0.297501269268E+04    0.14682E-02   -0.59352E-03  6816   0.713E-02    0.285E-01
DAV:   4    -0.297501255659E+04    0.13609E-03   -0.20313E-03  6688   0.478E-02    0.338E-01
DAV:   5    -0.297501198244E+04    0.57416E-03   -0.23168E-03  6752   0.454E-02    0.128E-01
DAV:   6    -0.297501187892E+04    0.10352E-03   -0.91429E-04  6912   0.274E-02    0.665E-02
DAV:   7    -0.297501185189E+04    0.27027E-04   -0.14543E-04  6848   0.135E-02    0.480E-02
DAV:   8    -0.297501184549E+04    0.64026E-05   -0.15134E-05  5536   0.521E-03
  27 F= -.30129310E+04 E0= -.30129310E+04  d E =-.434963E-01  mag=     0.0000
       N       E                     dE             d eps       ncg     rms          rms(c)
DAV:   1    -0.297501870246E+04   -0.68506E-02   -0.41225E+00  5696   0.155E+00    0.714E-01
DAV:   2    -0.297502859002E+04   -0.98876E-02   -0.12478E-01  6880   0.268E-01    0.617E-01
DAV:   3    -0.297502728646E+04    0.13036E-02   -0.52999E-03  6784   0.681E-02    0.274E-01
DAV:   4    -0.297502714662E+04    0.13984E-03   -0.17844E-03  6720   0.455E-02    0.323E-01
DAV:   5    -0.297502663324E+04    0.51337E-03   -0.21063E-03  6848   0.442E-02    0.125E-01
DAV:   6    -0.297502652524E+04    0.10800E-03   -0.85524E-04  6912   0.276E-02    0.640E-02
DAV:   7    -0.297502650072E+04    0.24522E-04   -0.14614E-04  6848   0.137E-02    0.475E-02
DAV:   8    -0.297502649463E+04    0.60889E-05   -0.13980E-05  5696   0.533E-03
  28 F= -.30129444E+04 E0= -.30129444E+04  d E =-.568451E-01  mag=     0.0000
       N       E                     dE             d eps       ncg     rms          rms(c)
DAV:   1    -0.297505673689E+04   -0.30236E-01   -0.35715E+00  5696   0.142E+00    0.588E-01
DAV:   2    -0.297506520057E+04   -0.84637E-02   -0.10167E-01  6816   0.227E-01    0.368E-01
DAV:   3    -0.297506460508E+04    0.59549E-03   -0.32789E-03  6912   0.508E-02    0.209E-01
DAV:   4    -0.297506446714E+04    0.13794E-03   -0.14920E-03  6656   0.343E-02    0.201E-01
DAV:   5    -0.297506420841E+04    0.25873E-03   -0.14258E-03  6784   0.304E-02    0.922E-02
DAV:   6    -0.297506415866E+04    0.49746E-04   -0.40466E-04  6880   0.176E-02    0.375E-02
DAV:   7    -0.297506415201E+04    0.66521E-05   -0.59491E-05  6880   0.829E-03
  29 F= -.30129791E+04 E0= -.30129791E+04  d E =-.347678E-01  mag=     0.0000
       N       E                     dE             d eps       ncg     rms          rms(c)
DAV:   1    -0.297507198762E+04   -0.78290E-02   -0.13604E+01  5696   0.277E+00    0.118E+00
DAV:   2    -0.297510425965E+04   -0.32272E-01   -0.38694E-01  6784   0.445E-01    0.711E-01
DAV:   3    -0.297510202207E+04    0.22376E-02   -0.12540E-02  6880   0.998E-02    0.413E-01
DAV:   4    -0.297510145917E+04    0.56290E-03   -0.57636E-03  6624   0.672E-02    0.391E-01
DAV:   5    -0.297510040705E+04    0.10521E-02   -0.52987E-03  6688   0.601E-02    0.175E-01
DAV:   6    -0.297510022822E+04    0.17882E-03   -0.15249E-03  6848   0.357E-02    0.744E-02
DAV:   7    -0.297510019405E+04    0.34174E-04   -0.24733E-04  6976   0.172E-02    0.520E-02
DAV:   8    -0.297510018177E+04    0.12278E-04   -0.43048E-05  6400   0.676E-03    0.288E-02
DAV:   9    -0.297510017687E+04    0.49006E-05   -0.23087E-05  5696   0.626E-03
  30 F= -.30130062E+04 E0= -.30130062E+04  d E =-.618865E-01  mag=     0.0000
       N       E                     dE             d eps       ncg     rms          rms(c)
DAV:   1    -0.297513081144E+04   -0.30630E-01   -0.45639E+00  5696   0.160E+00    0.683E-01
DAV:   2    -0.297514139904E+04   -0.10588E-01   -0.12746E-01  6688   0.252E-01    0.384E-01
DAV:   3    -0.297514069679E+04    0.70225E-03   -0.34222E-03  6944   0.500E-02    0.235E-01
DAV:   4    -0.297514061093E+04    0.85864E-04   -0.20742E-03  6720   0.383E-02    0.231E-01
DAV:   5    -0.297514017370E+04    0.43723E-03   -0.19376E-03  6752   0.360E-02    0.836E-02
DAV:   6    -0.297514014402E+04    0.29681E-04   -0.43692E-04  6784   0.192E-02    0.433E-02
DAV:   7    -0.297514013494E+04    0.90777E-05   -0.71815E-05  6880   0.888E-03
  31 F= -.30130443E+04 E0= -.30130443E+04  d E =-.380340E-01  mag=     0.0000
       N       E                     dE             d eps       ncg     rms          rms(c)
DAV:   1    -0.297514386510E+04   -0.37211E-02   -0.17619E+01  5696   0.314E+00    0.138E+00
DAV:   2    -0.297518509220E+04   -0.41227E-01   -0.49622E-01  6720   0.496E-01    0.754E-01
DAV:   3    -0.297518243627E+04    0.26559E-02   -0.13328E-02  6976   0.985E-02    0.467E-01
DAV:   4    -0.297518212001E+04    0.31626E-03   -0.82156E-03  6848   0.750E-02    0.457E-01
DAV:   5    -0.297518036423E+04    0.17558E-02   -0.74617E-03  6784   0.703E-02    0.161E-01
DAV:   6    -0.297518025547E+04    0.10876E-03   -0.16861E-03  6848   0.381E-02    0.877E-02
DAV:   7    -0.297518020873E+04    0.46741E-04   -0.30006E-04  6944   0.179E-02    0.715E-02
DAV:   8    -0.297518018965E+04    0.19072E-04   -0.38605E-05  6176   0.644E-03    0.409E-02
DAV:   9    -0.297518018188E+04    0.77788E-05   -0.45490E-05  5984   0.820E-03
  32 F= -.30130724E+04 E0= -.30130724E+04  d E =-.661680E-01  mag=     0.0000
       N       E                     dE             d eps       ncg     rms          rms(c)
DAV:   1    -0.297519872545E+04   -0.18536E-01   -0.48729E+00  5696   0.163E+00    0.690E-01
DAV:   2    -0.297521043369E+04   -0.11708E-01   -0.13856E-01  6752   0.260E-01    0.401E-01
DAV:   3    -0.297520981140E+04    0.62228E-03   -0.38542E-03  6880   0.503E-02    0.248E-01
DAV:   4    -0.297520976898E+04    0.42428E-04   -0.22359E-03  6912   0.369E-02    0.244E-01
DAV:   5    -0.297520930786E+04    0.46111E-03   -0.19132E-03  6784   0.336E-02    0.869E-02
DAV:   6    -0.297520931210E+04   -0.42339E-05   -0.47500E-04  6880   0.194E-02    0.497E-02
DAV:   7    -0.297520929585E+04    0.16247E-04   -0.10621E-04  6944   0.989E-03    0.372E-02
DAV:   8    -0.297520929263E+04    0.32184E-05   -0.11347E-05  5472   0.350E-03
  33 F= -.30131072E+04 E0= -.30131072E+04  d E =-.347695E-01  mag=     0.0000
       N       E                     dE             d eps       ncg     rms          rms(c)
DAV:   1    -0.297519965493E+04    0.96409E-02   -0.15758E+01  5696   0.293E+00    0.126E+00
DAV:   2    -0.297523767369E+04   -0.38019E-01   -0.45069E-01  6720   0.468E-01    0.718E-01
DAV:   3    -0.297523567817E+04    0.19955E-02   -0.12709E-02  6816   0.918E-02    0.451E-01
DAV:   4    -0.297523552847E+04    0.14970E-03   -0.75351E-03  6816   0.669E-02    0.439E-01
DAV:   5    -0.297523396801E+04    0.15605E-02   -0.62324E-03  6752   0.613E-02    0.158E-01
DAV:   6    -0.297523395563E+04    0.12381E-04   -0.15456E-03  6880   0.364E-02    0.879E-02
DAV:   7    -0.297523390464E+04    0.50994E-04   -0.36064E-04  6976   0.183E-02    0.669E-02
DAV:   8    -0.297523388932E+04    0.15323E-04   -0.38030E-05  6112   0.659E-03    0.405E-02
DAV:   9    -0.297523388228E+04    0.70326E-05   -0.40708E-05  5920   0.734E-03
  34 F= -.30131320E+04 E0= -.30131320E+04  d E =-.595553E-01  mag=     0.0000
       N       E                     dE             d eps       ncg     rms          rms(c)
DAV:   1    -0.297526746284E+04   -0.33574E-01   -0.41738E+00  5696   0.153E+00    0.722E-01
DAV:   2    -0.297527771879E+04   -0.10256E-01   -0.12496E-01  6912   0.255E-01    0.390E-01
DAV:   3    -0.297527698418E+04    0.73460E-03   -0.47982E-03  6880   0.586E-02    0.259E-01
DAV:   4    -0.297527669543E+04    0.28875E-03   -0.24276E-03  6752   0.385E-02    0.213E-01
DAV:   5    -0.297527630357E+04    0.39186E-03   -0.18426E-03  6752   0.357E-02    0.961E-02
DAV:   6    -0.297527627213E+04    0.31443E-04   -0.53654E-04  7008   0.217E-02    0.434E-02
DAV:   7    -0.297527625596E+04    0.16169E-04   -0.11581E-04  7008   0.112E-02    0.301E-02
DAV:   8    -0.297527625418E+04    0.17760E-05   -0.14089E-05  5440   0.410E-03
  35 F= -.30131695E+04 E0= -.30131695E+04  d E =-.375235E-01  mag=     0.0000
       N       E                     dE             d eps       ncg     rms          rms(c)
DAV:   1    -0.297529155813E+04   -0.15302E-01   -0.47657E+00  5696   0.164E+00    0.779E-01
DAV:   2    -0.297530324733E+04   -0.11689E-01   -0.14289E-01  6944   0.273E-01    0.414E-01
DAV:   3    -0.297530241300E+04    0.83433E-03   -0.55448E-03  6816   0.632E-02    0.276E-01
DAV:   4    -0.297530206629E+04    0.34671E-03   -0.28035E-03  6688   0.416E-02    0.225E-01
DAV:   5    -0.297530160960E+04    0.45669E-03   -0.20854E-03  6720   0.385E-02    0.102E-01
DAV:   6    -0.297530156889E+04    0.40716E-04   -0.60001E-04  6880   0.236E-02    0.453E-02
DAV:   7    -0.297530155237E+04    0.16521E-04   -0.13111E-04  6880   0.120E-02    0.319E-02
DAV:   8    -0.297530155054E+04    0.18252E-05   -0.15708E-05  5568   0.441E-03
  36 F= -.30131865E+04 E0= -.30131865E+04  d E =-.545286E-01  mag=    -0.0000
       N       E                     dE             d eps       ncg     rms          rms(c)
DAV:   1    -0.297532190386E+04   -0.20351E-01   -0.31510E+00  5696   0.132E+00    0.622E-01
DAV:   2    -0.297532903645E+04   -0.71326E-02   -0.87737E-02  6912   0.211E-01    0.328E-01
DAV:   3    -0.297532851080E+04    0.52565E-03   -0.21771E-03  6880   0.429E-02    0.211E-01
DAV:   4    -0.297532845566E+04    0.55138E-04   -0.13838E-03  6816   0.321E-02    0.182E-01
DAV:   5    -0.297532819416E+04    0.26150E-03   -0.14590E-03  6720   0.313E-02    0.830E-02
DAV:   6    -0.297532814773E+04    0.46435E-04   -0.39463E-04  6944   0.182E-02    0.332E-02
DAV:   7    -0.297532813965E+04    0.80728E-05   -0.63043E-05  6880   0.853E-03
  37 F= -.30132146E+04 E0= -.30132146E+04  d E =-.281288E-01  mag=    -0.0000
       N       E                     dE             d eps       ncg     rms          rms(c)
DAV:   1    -0.297533297111E+04   -0.48234E-02   -0.67028E+00  5696   0.192E+00    0.920E-01
DAV:   2    -0.297534810077E+04   -0.15130E-01   -0.18652E-01  6912   0.308E-01    0.476E-01
DAV:   3    -0.297534697028E+04    0.11305E-02   -0.44380E-03  7072   0.626E-02    0.309E-01
DAV:   4    -0.297534683828E+04    0.13200E-03   -0.28393E-03  6784   0.478E-02    0.262E-01
DAV:   5    -0.297534626534E+04    0.57295E-03   -0.30455E-03  7008   0.473E-02    0.117E-01
DAV:   6    -0.297534615975E+04    0.10559E-03   -0.83438E-04  6784   0.278E-02    0.495E-02
DAV:   7    -0.297534613761E+04    0.22142E-04   -0.14186E-04  6944   0.131E-02    0.389E-02
DAV:   8    -0.297534612747E+04    0.10141E-04   -0.17951E-05  5728   0.544E-03    0.235E-02
DAV:   9    -0.297534612357E+04    0.39008E-05   -0.10494E-05  5344   0.607E-03
  38 F= -.30132294E+04 E0= -.30132294E+04  d E =-.428736E-01  mag=    -0.0000
       N       E                     dE             d eps       ncg     rms          rms(c)
DAV:   1    -0.297536239846E+04   -0.16271E-01   -0.30230E+00  5696   0.130E+00    0.568E-01
DAV:   2    -0.297536943138E+04   -0.70329E-02   -0.84539E-02  6784   0.205E-01    0.313E-01
DAV:   3    -0.297536894377E+04    0.48761E-03   -0.17952E-03  7072   0.386E-02    0.195E-01
DAV:   4    -0.297536882400E+04    0.11977E-03   -0.77967E-04  6784   0.267E-02    0.166E-01
DAV:   5    -0.297536865752E+04    0.16648E-03   -0.96156E-04  6752   0.261E-02    0.707E-02
DAV:   6    -0.297536863445E+04    0.23069E-04   -0.29957E-04  6816   0.139E-02    0.315E-02
DAV:   7    -0.297536862748E+04    0.69733E-05   -0.43997E-05  6528   0.704E-03
  39 F= -.30132500E+04 E0= -.30132500E+04  d E =-.206372E-01  mag=    -0.0000
       N       E                     dE             d eps       ncg     rms          rms(c)
DAV:   1    -0.297536923324E+04   -0.59879E-03   -0.95637E+00  5696   0.231E+00    0.103E+00
DAV:   2    -0.297539147190E+04   -0.22239E-01   -0.26813E-01  6784   0.365E-01    0.554E-01
DAV:   3    -0.297538995814E+04    0.15138E-02   -0.56229E-03  7104   0.689E-02    0.345E-01
DAV:   4    -0.297538957596E+04    0.38218E-03   -0.24573E-03  6848   0.480E-02    0.294E-01
DAV:   5    -0.297538902201E+04    0.55395E-03   -0.29219E-03  6880   0.471E-02    0.123E-01
DAV:   6    -0.297538894945E+04    0.72556E-04   -0.93079E-04  6752   0.253E-02    0.566E-02
DAV:   7    -0.297538892316E+04    0.26291E-04   -0.14572E-04  6944   0.131E-02    0.432E-02
DAV:   8    -0.297538891688E+04    0.62796E-05   -0.26355E-05  6080   0.588E-03
  40 F= -.30132671E+04 E0= -.30132671E+04  d E =-.377543E-01  mag=     0.0000
       N       E                     dE             d eps       ncg     rms          rms(c)
DAV:   1    -0.297540854394E+04   -0.19621E-01   -0.27330E+00  5696   0.125E+00    0.545E-01
DAV:   2    -0.297541448192E+04   -0.59380E-02   -0.73916E-02  6816   0.200E-01    0.288E-01
DAV:   3    -0.297541398094E+04    0.50099E-03   -0.17043E-03  7040   0.409E-02    0.172E-01
DAV:   4    -0.297541385077E+04    0.13016E-03   -0.80256E-04  6912   0.307E-02    0.159E-01
DAV:   5    -0.297541366852E+04    0.18225E-03   -0.67081E-04  6848   0.283E-02    0.476E-02
DAV:   6    -0.297541367032E+04   -0.18005E-05   -0.23721E-04  6976   0.166E-02    0.378E-02
DAV:   7    -0.297541366206E+04    0.82570E-05   -0.58834E-05  6816   0.786E-03
  41 F= -.30132907E+04 E0= -.30132907E+04  d E =-.235318E-01  mag=     0.0000
       N       E                     dE             d eps       ncg     rms          rms(c)
DAV:   1    -0.297542142939E+04   -0.77591E-02   -0.33660E+00  5696   0.138E+00    0.610E-01
DAV:   2    -0.297542871022E+04   -0.72808E-02   -0.90971E-02  6848   0.222E-01    0.317E-01
DAV:   3    -0.297542808804E+04    0.62218E-03   -0.20701E-03  7008   0.458E-02    0.188E-01
DAV:   4    -0.297542790517E+04    0.18287E-03   -0.94277E-04  6848   0.348E-02    0.173E-01
DAV:   5    -0.297542767864E+04    0.22652E-03   -0.71988E-04  6816   0.317E-02    0.461E-02
DAV:   6    -0.297542767555E+04    0.30889E-05   -0.23458E-04  7040   0.188E-02    0.379E-02
DAV:   7    -0.297542767178E+04    0.37748E-05   -0.56386E-05  6912   0.816E-03
  42 F= -.30133000E+04 E0= -.30133000E+04  d E =-.328794E-01  mag=     0.0000
       N       E                     dE             d eps       ncg     rms          rms(c)
DAV:   1    -0.297544330011E+04   -0.15625E-01   -0.29735E+00  5696   0.128E+00    0.573E-01
DAV:   2    -0.297545015339E+04   -0.68533E-02   -0.82959E-02  6720   0.205E-01    0.325E-01
DAV:   3    -0.297544971838E+04    0.43501E-03   -0.17444E-03  6912   0.362E-02    0.191E-01
DAV:   4    -0.297544959360E+04    0.12478E-03   -0.79359E-04  6848   0.284E-02    0.170E-01
DAV:   5    -0.297544946724E+04    0.12636E-03   -0.72496E-04  6816   0.229E-02    0.566E-02
DAV:   6    -0.297544946263E+04    0.46107E-05   -0.20004E-04  6944   0.123E-02    0.403E-02
DAV:   7    -0.297544945615E+04    0.64835E-05   -0.49834E-05  6368   0.631E-03
  43 F= -.30133209E+04 E0= -.30133209E+04  d E =-.208983E-01  mag=     0.0000
       N       E                     dE             d eps       ncg     rms          rms(c)
DAV:   1    -0.297545392666E+04   -0.44640E-02   -0.49111E+00  5696   0.164E+00    0.738E-01
DAV:   2    -0.297546524567E+04   -0.11319E-01   -0.13694E-01  6784   0.263E-01    0.415E-01
DAV:   3    -0.297546452526E+04    0.72041E-03   -0.28762E-03  6848   0.469E-02    0.245E-01
DAV:   4    -0.297546430879E+04    0.21647E-03   -0.13543E-03  6880   0.374E-02    0.218E-01
DAV:   5    -0.297546409052E+04    0.21827E-03   -0.12639E-03  6784   0.308E-02    0.753E-02
DAV:   6    -0.297546407467E+04    0.15857E-04   -0.36685E-04  6880   0.173E-02    0.525E-02
DAV:   7    -0.297546405997E+04    0.14699E-04   -0.87013E-05  6784   0.869E-03    0.368E-02
DAV:   8    -0.297546405712E+04    0.28425E-05   -0.12409E-05  5440   0.351E-03
  44 F= -.30133336E+04 E0= -.30133336E+04  d E =-.336355E-01  mag=     0.0000
       N       E                     dE             d eps       ncg     rms          rms(c)
DAV:   1    -0.297546457932E+04   -0.51936E-03   -0.38865E-01  5696   0.462E-01    0.212E-01
DAV:   2    -0.297546548390E+04   -0.90457E-03   -0.10985E-02  6784   0.745E-02    0.117E-01
DAV:   3    -0.297546542796E+04    0.55937E-04   -0.26652E-04  6880   0.143E-02    0.693E-02
DAV:   4    -0.297546541920E+04    0.87605E-05   -0.14527E-04  6720   0.111E-02    0.637E-02
DAV:   5    -0.297546539922E+04    0.19976E-04   -0.15281E-04  6368   0.985E-03    0.291E-02
DAV:   6    -0.297546539467E+04    0.45561E-05   -0.42145E-05  5856   0.594E-03
  45 F= -.30133343E+04 E0= -.30133343E+04  d E =-.343272E-01  mag=     0.0000
       N       E                     dE             d eps       ncg     rms          rms(c)
DAV:   1    -0.297548173760E+04   -0.16338E-01   -0.51947E+00  5696   0.174E+00    0.751E-01
DAV:   2    -0.297549428680E+04   -0.12549E-01   -0.15045E-01  6880   0.283E-01    0.427E-01
DAV:   3    -0.297549343936E+04    0.84744E-03   -0.50988E-03  6816   0.623E-02    0.262E-01
DAV:   4    -0.297549314151E+04    0.29785E-03   -0.22446E-03  6752   0.398E-02    0.230E-01
DAV:   5    -0.297549274464E+04    0.39687E-03   -0.20328E-03  6720   0.368E-02    0.112E-01
DAV:   6    -0.297549267789E+04    0.66751E-04   -0.58052E-04  6912   0.213E-02    0.457E-02
DAV:   7    -0.297549266282E+04    0.15065E-04   -0.96888E-05  6880   0.110E-02    0.289E-02
DAV:   8    -0.297549265931E+04    0.35134E-05   -0.17080E-05  5696   0.422E-03
  46 F= -.30133567E+04 E0= -.30133567E+04  d E =-.223337E-01  mag=     0.0000
       N       E                     dE             d eps       ncg     rms          rms(c)
DAV:   1    -0.297549526902E+04   -0.26062E-02   -0.50860E+00  5696   0.173E+00    0.743E-01
DAV:   2    -0.297550759109E+04   -0.12322E-01   -0.14751E-01  6880   0.281E-01    0.424E-01
DAV:   3    -0.297550674771E+04    0.84338E-03   -0.50279E-03  6784   0.621E-02    0.260E-01
DAV:   4    -0.297550645030E+04    0.29741E-03   -0.22048E-03  6688   0.396E-02    0.229E-01
DAV:   5    -0.297550604948E+04    0.40083E-03   -0.19957E-03  6688   0.368E-02    0.111E-01
DAV:   6    -0.297550598215E+04    0.67326E-04   -0.57324E-04  6816   0.217E-02    0.449E-02
DAV:   7    -0.297550596757E+04    0.14578E-04   -0.99183E-05  6880   0.112E-02    0.291E-02
DAV:   8    -0.297550596486E+04    0.27106E-05   -0.17423E-05  5792   0.442E-03
  47 F= -.30133643E+04 E0= -.30133643E+04  d E =-.299670E-01  mag=     0.0000
       N       E                     dE             d eps       ncg     rms          rms(c)
DAV:   1    -0.297552366007E+04   -0.17692E-01   -0.54063E+00  5696   0.177E+00    0.759E-01
DAV:   2    -0.297553694361E+04   -0.13284E-01   -0.15623E-01  6848   0.288E-01    0.543E-01
DAV:   3    -0.297553579106E+04    0.11525E-02   -0.58447E-03  6688   0.666E-02    0.274E-01
DAV:   4    -0.297553557205E+04    0.21901E-03   -0.23369E-03  6656   0.429E-02    0.282E-01
DAV:   5    -0.297553516176E+04    0.41029E-03   -0.24316E-03  6720   0.392E-02    0.144E-01
DAV:   6    -0.297553503359E+04    0.12817E-03   -0.74275E-04  6816   0.231E-02    0.429E-02
DAV:   7    -0.297553502577E+04    0.78190E-05   -0.10159E-04  6912   0.111E-02    0.346E-02
DAV:   8    -0.297553502398E+04    0.17877E-05   -0.20190E-05  5792   0.493E-03
  48 F= -.30133869E+04 E0= -.30133869E+04  d E =-.225915E-01  mag=     0.0000
       N       E                     dE             d eps       ncg     rms          rms(c)
DAV:   1    -0.297553814442E+04   -0.31187E-02   -0.69691E+00  5696   0.201E+00    0.866E-01
DAV:   2    -0.297555522994E+04   -0.17086E-01   -0.20148E-01  6784   0.327E-01    0.621E-01
DAV:   3    -0.297555373976E+04    0.14902E-02   -0.74708E-03  6784   0.757E-02    0.313E-01
DAV:   4    -0.297555345686E+04    0.28290E-03   -0.29890E-03  6688   0.488E-02    0.322E-01
DAV:   5    -0.297555291201E+04    0.54485E-03   -0.31295E-03  6752   0.450E-02    0.166E-01
DAV:   6    -0.297555274083E+04    0.17118E-03   -0.96602E-04  6656   0.270E-02    0.485E-02
DAV:   7    -0.297555273012E+04    0.10716E-04   -0.13816E-04  6944   0.133E-02    0.401E-02
DAV:   8    -0.297555272726E+04    0.28586E-05   -0.26708E-05  5984   0.597E-03
  49 F= -.30133960E+04 E0= -.30133960E+04  d E =-.317192E-01  mag=     0.0000
       N       E                     dE             d eps       ncg     rms          rms(c)
DAV:   1    -0.297555497116E+04   -0.22410E-02   -0.76707E+00  5696   0.207E+00    0.925E-01
DAV:   2    -0.297557302462E+04   -0.18053E-01   -0.21820E-01  6752   0.335E-01    0.592E-01
DAV:   3    -0.297557165473E+04    0.13699E-02   -0.60684E-03  6944   0.699E-02    0.320E-01
DAV:   4    -0.297557129836E+04    0.35637E-03   -0.21009E-03  6816   0.455E-02    0.316E-01
DAV:   5    -0.297557082417E+04    0.47419E-03   -0.25796E-03  6720   0.420E-02    0.130E-01
DAV:   6    -0.297557076210E+04    0.62072E-04   -0.96743E-04  6656   0.249E-02    0.688E-02
DAV:   7    -0.297557072551E+04    0.36588E-04   -0.17525E-04  6752   0.133E-02    0.434E-02
DAV:   8    -0.297557072232E+04    0.31906E-05   -0.20471E-05  5856   0.456E-03
  50 F= -.30134164E+04 E0= -.30134164E+04  d E =-.204372E-01  mag=     0.0000
       N       E                     dE             d eps       ncg     rms          rms(c)
DAV:   1    -0.297557054559E+04    0.17992E-03   -0.78491E-01  5696   0.662E-01    0.296E-01
DAV:   2    -0.297557241289E+04   -0.18673E-02   -0.22590E-02  6752   0.108E-01    0.191E-01
DAV:   3    -0.297557227644E+04    0.13645E-03   -0.61410E-04  6944   0.225E-02    0.101E-01
DAV:   4    -0.297557224051E+04    0.35933E-04   -0.20044E-04  6752   0.146E-02    0.102E-01
DAV:   5    -0.297557219515E+04    0.45358E-04   -0.24609E-04  6432   0.138E-02    0.387E-02
DAV:   6    -0.297557219306E+04    0.20883E-05   -0.94288E-05  6464   0.823E-03
  51 F= -.30134177E+04 E0= -.30134177E+04  d E =-.217166E-01  mag=    -0.0000
       N       E                     dE             d eps       ncg     rms          rms(c)
DAV:   1    -0.297558540026E+04   -0.13205E-01   -0.63239E+00  5696   0.189E+00    0.813E-01
DAV:   2    -0.297560002729E+04   -0.14627E-01   -0.17655E-01  6816   0.303E-01    0.549E-01
DAV:   3    -0.297559890189E+04    0.11254E-02   -0.48524E-03  6880   0.633E-02    0.285E-01
DAV:   4    -0.297559872441E+04    0.17748E-03   -0.21070E-03  6784   0.459E-02    0.307E-01
DAV:   5    -0.297559818456E+04    0.53986E-03   -0.24138E-03  6784   0.415E-02    0.112E-01
DAV:   6    -0.297559813090E+04    0.53659E-04   -0.72543E-04  6784   0.226E-02    0.565E-02
DAV:   7    -0.297559810672E+04    0.24176E-04   -0.12309E-04  6944   0.121E-02    0.420E-02
DAV:   8    -0.297559810161E+04    0.51099E-05   -0.17321E-05  5568   0.443E-03
  52 F= -.30134379E+04 E0= -.30134379E+04  d E =-.201629E-01  mag=    -0.0000
       N       E                     dE             d eps       ncg     rms          rms(c)
DAV:   1    -0.297560110873E+04   -0.30020E-02   -0.21146E+00  5696   0.109E+00    0.472E-01
DAV:   2    -0.297560602479E+04   -0.49161E-02   -0.59213E-02  6816   0.176E-01    0.315E-01
DAV:   3    -0.297560565134E+04    0.37346E-03   -0.15826E-03  6848   0.364E-02    0.165E-01
DAV:   4    -0.297560559559E+04    0.55748E-04   -0.70745E-04  6816   0.267E-02    0.178E-01
DAV:   5    -0.297560541043E+04    0.18516E-03   -0.82803E-04  6720   0.245E-02    0.653E-02
DAV:   6    -0.297560539037E+04    0.20064E-04   -0.25078E-04  6752   0.136E-02    0.321E-02
DAV:   7    -0.297560538332E+04    0.70498E-05   -0.41222E-05  6208   0.734E-03
  53 F= -.30134415E+04 E0= -.30134415E+04  d E =-.237775E-01  mag=    -0.0000
       N       E                     dE             d eps       ncg     rms          rms(c)
DAV:   1    -0.297561597682E+04   -0.10586E-01   -0.76175E+00  5696   0.213E+00    0.891E-01
DAV:   2    -0.297563324811E+04   -0.17271E-01   -0.21053E-01  6848   0.340E-01    0.623E-01
DAV:   3    -0.297563188449E+04    0.13636E-02   -0.59010E-03  6976   0.705E-02    0.319E-01
DAV:   4    -0.297563176199E+04    0.12249E-03   -0.26364E-03  6784   0.528E-02    0.361E-01
DAV:   5    -0.297563100206E+04    0.75994E-03   -0.29020E-03  6784   0.488E-02    0.123E-01
DAV:   6    -0.297563095507E+04    0.46991E-04   -0.99311E-04  6816   0.272E-02    0.664E-02
DAV:   7    -0.297563091841E+04    0.36654E-04   -0.16657E-04  6784   0.135E-02    0.507E-02
DAV:   8    -0.297563091154E+04    0.68701E-05   -0.21853E-05  5792   0.482E-03
  54 F= -.30134605E+04 E0= -.30134605E+04  d E =-.190239E-01  mag=    -0.0000
       N       E                     dE             d eps       ncg     rms          rms(c)
DAV:   1    -0.297563272630E+04   -0.18079E-02   -0.58231E-01  5696   0.589E-01    0.250E-01
DAV:   2    -0.297563406159E+04   -0.13353E-02   -0.16289E-02  6848   0.950E-02    0.172E-01
DAV:   3    -0.297563395954E+04    0.10205E-03   -0.46611E-04  6944   0.202E-02    0.888E-02
DAV:   4    -0.297563395349E+04    0.60519E-05   -0.22524E-04  6784   0.153E-02    0.995E-02
DAV:   5    -0.297563389454E+04    0.58951E-04   -0.24922E-04  6336   0.142E-02    0.379E-02
DAV:   6    -0.297563388872E+04    0.58209E-05   -0.83989E-05  6624   0.862E-03
  55 F= -.30134616E+04 E0= -.30134616E+04  d E =-.200606E-01  mag=    -0.0000
       N       E                     dE             d eps       ncg     rms          rms(c)
DAV:   1    -0.297563484329E+04   -0.94875E-03   -0.75974E+00  5696   0.212E+00    0.900E-01
DAV:   2    -0.297565281915E+04   -0.17976E-01   -0.21619E-01  6784   0.335E-01    0.480E-01
DAV:   3    -0.297565182747E+04    0.99168E-03   -0.48249E-03  6816   0.587E-02    0.303E-01
DAV:   4    -0.297565168192E+04    0.14555E-03   -0.21550E-03  6816   0.425E-02    0.272E-01
DAV:   5    -0.297565122741E+04    0.45450E-03   -0.21231E-03  6848   0.359E-02    0.117E-01
DAV:   6    -0.297565120708E+04    0.20335E-04   -0.77053E-04  6944   0.223E-02    0.613E-02
DAV:   7    -0.297565117965E+04    0.27430E-04   -0.14557E-04  6816   0.117E-02    0.416E-02
DAV:   8    -0.297565117613E+04    0.35202E-05   -0.16411E-05  5728   0.427E-03
  56 F= -.30134787E+04 E0= -.30134787E+04  d E =-.171629E-01  mag=    -0.0000
       N       E                     dE             d eps       ncg     rms          rms(c)
DAV:   1    -0.297565095458E+04    0.22507E-03   -0.92087E-01  5696   0.739E-01    0.315E-01
DAV:   2    -0.297565315559E+04   -0.22010E-02   -0.26476E-02  6688   0.118E-01    0.167E-01
DAV:   3    -0.297565303768E+04    0.11790E-03   -0.59778E-04  6816   0.208E-02    0.106E-01
DAV:   4    -0.297565302292E+04    0.14761E-04   -0.27774E-04  6880   0.149E-02    0.944E-02
DAV:   5    -0.297565297029E+04    0.52633E-04   -0.27725E-04  6432   0.129E-02    0.418E-02
DAV:   6    -0.297565296751E+04    0.27741E-05   -0.96087E-05  6112   0.840E-03
  57 F= -.30134801E+04 E0= -.30134801E+04  d E =-.185063E-01  mag=    -0.0000
       N       E                     dE             d eps       ncg     rms          rms(c)
DAV:   1    -0.297565913001E+04   -0.61597E-02   -0.69428E+00  5696   0.203E+00    0.883E-01
DAV:   2    -0.297567609608E+04   -0.16966E-01   -0.20204E-01  6688   0.325E-01    0.511E-01
DAV:   3    -0.297567508763E+04    0.10084E-02   -0.59259E-03  6816   0.663E-02    0.306E-01
DAV:   4    -0.297567481543E+04    0.27220E-03   -0.23046E-03  6720   0.435E-02    0.280E-01
DAV:   5    -0.297567436717E+04    0.44826E-03   -0.23841E-03  6752   0.392E-02    0.131E-01
DAV:   6    -0.297567431591E+04    0.51258E-04   -0.84923E-04  6848   0.235E-02    0.572E-02
DAV:   7    -0.297567429385E+04    0.22056E-04   -0.13401E-04  6912   0.125E-02    0.363E-02
DAV:   8    -0.297567429238E+04    0.14694E-05   -0.19237E-05  5696   0.442E-03
  58 F= -.30134963E+04 E0= -.30134963E+04  d E =-.162409E-01  mag=    -0.0000
       N       E                     dE             d eps       ncg     rms          rms(c)
DAV:   1    -0.297567572941E+04   -0.14356E-02   -0.13475E+00  5696   0.894E-01    0.386E-01
DAV:   2    -0.297567904610E+04   -0.33167E-02   -0.39465E-02  6688   0.144E-01    0.226E-01
DAV:   3    -0.297567885789E+04    0.18822E-03   -0.11606E-03  6784   0.293E-02    0.135E-01
DAV:   4    -0.297567881209E+04    0.45800E-04   -0.47502E-04  6656   0.194E-02    0.125E-01
DAV:   5    -0.297567872226E+04    0.89823E-04   -0.48057E-04  6432   0.176E-02    0.589E-02
DAV:   6    -0.297567871530E+04    0.69630E-05   -0.16633E-04  6880   0.109E-02    0.251E-02
DAV:   7    -0.297567871298E+04    0.23228E-05   -0.27706E-05  5856   0.585E-03
  59 F= -.30134980E+04 E0= -.30134980E+04  d E =-.179549E-01  mag=    -0.0000
       N       E                     dE             d eps       ncg     rms          rms(c)
DAV:   1    -0.297568400550E+04   -0.52902E-02   -0.79640E+00  5696   0.220E+00    0.894E-01
DAV:   2    -0.297570304438E+04   -0.19039E-01   -0.22707E-01  6752   0.349E-01    0.542E-01
DAV:   3    -0.297570168759E+04    0.13568E-02   -0.66858E-03  6912   0.735E-02    0.307E-01
DAV:   4    -0.297570129978E+04    0.38780E-03   -0.25677E-03  6752   0.464E-02    0.287E-01
DAV:   5    -0.297570082110E+04    0.47868E-03   -0.28058E-03  6816   0.443E-02    0.137E-01
DAV:   6    -0.297570071800E+04    0.10310E-03   -0.85929E-04  6880   0.248E-02    0.514E-02
DAV:   7    -0.297570070223E+04    0.15770E-04   -0.12053E-04  6944   0.125E-02    0.358E-02
DAV:   8    -0.297570069999E+04    0.22414E-05   -0.23974E-05  5984   0.554E-03
  60 F= -.30135136E+04 E0= -.30135136E+04  d E =-.155776E-01  mag=    -0.0000
       N       E                     dE             d eps       ncg     rms          rms(c)
DAV:   1    -0.297570206400E+04   -0.13618E-02   -0.11372E+00  5696   0.830E-01    0.336E-01
DAV:   2    -0.297570479937E+04   -0.27354E-02   -0.32666E-02  6720   0.133E-01    0.205E-01
DAV:   3    -0.297570460784E+04    0.19153E-03   -0.95790E-04  6880   0.278E-02    0.117E-01
DAV:   4    -0.297570455428E+04    0.53553E-04   -0.38390E-04  6720   0.177E-02    0.110E-01
DAV:   5    -0.297570448490E+04    0.69381E-04   -0.41816E-04  6400   0.175E-02    0.522E-02
DAV:   6    -0.297570447147E+04    0.13435E-04   -0.12795E-04  6816   0.101E-02    0.193E-02
DAV:   7    -0.297570447109E+04    0.37707E-06   -0.18582E-05  5760   0.518E-03
  61 F= -.30135148E+04 E0= -.30135148E+04  d E =-.168097E-01  mag=    -0.0000
       N       E                     dE             d eps       ncg     rms          rms(c)
DAV:   1    -0.297570853851E+04   -0.40670E-02   -0.70806E+00  5696   0.202E+00    0.845E-01
DAV:   2    -0.297572508873E+04   -0.16550E-01   -0.19784E-01  6720   0.318E-01    0.509E-01
DAV:   3    -0.297572401767E+04    0.10711E-02   -0.53912E-03  6880   0.635E-02    0.290E-01
DAV:   4    -0.297572377323E+04    0.24444E-03   -0.23043E-03  6784   0.420E-02    0.275E-01
DAV:   5    -0.297572337733E+04    0.39590E-03   -0.25617E-03  6752   0.391E-02    0.131E-01
DAV:   6    -0.297572327834E+04    0.98987E-04   -0.75148E-04  6752   0.222E-02    0.507E-02
DAV:   7    -0.297572326650E+04    0.11845E-04   -0.98800E-05  6944   0.110E-02    0.353E-02
DAV:   8    -0.297572326470E+04    0.17988E-05   -0.21127E-05  5824   0.483E-03
  62 F= -.30135295E+04 E0= -.30135295E+04  d E =-.146853E-01  mag=    -0.0000
       N       E                     dE             d eps       ncg     rms          rms(c)
DAV:   1    -0.297572499649E+04   -0.17300E-02   -0.11623E+00  5696   0.818E-01    0.343E-01
DAV:   2    -0.297572773033E+04   -0.27338E-02   -0.32695E-02  6688   0.129E-01    0.208E-01
DAV:   3    -0.297572755747E+04    0.17287E-03   -0.94144E-04  6816   0.264E-02    0.117E-01
DAV:   4    -0.297572752240E+04    0.35062E-04   -0.41969E-04  6784   0.175E-02    0.113E-01
DAV:   5    -0.297572745553E+04    0.66878E-04   -0.43337E-04  6400   0.163E-02    0.540E-02
DAV:   6    -0.297572744013E+04    0.15399E-04   -0.12426E-04  6816   0.955E-03    0.203E-02
DAV:   7    -0.297572743953E+04    0.59512E-06   -0.17408E-05  5664   0.492E-03
  63 F= -.30135310E+04 E0= -.30135310E+04  d E =-.161395E-01  mag=     0.0000
       N       E                     dE             d eps       ncg     rms          rms(c)
DAV:   1    -0.297573055698E+04   -0.31169E-02   -0.50108E+00  5696   0.171E+00    0.742E-01
DAV:   2    -0.297574248008E+04   -0.11923E-01   -0.14502E-01  6816   0.277E-01    0.466E-01
DAV:   3    -0.297574168908E+04    0.79100E-03   -0.47195E-03  6816   0.589E-02    0.261E-01
DAV:   4    -0.297574160647E+04    0.82614E-04   -0.24477E-03  6784   0.414E-02    0.267E-01
DAV:   5    -0.297574112756E+04    0.47891E-03   -0.22005E-03  6848   0.360E-02    0.118E-01
DAV:   6    -0.297574105691E+04    0.70645E-04   -0.59433E-04  6880   0.222E-02    0.510E-02
DAV:   7    -0.297574104144E+04    0.15472E-04   -0.11569E-04  6880   0.119E-02    0.378E-02
DAV:   8    -0.297574103762E+04    0.38194E-05   -0.14587E-05  5632   0.408E-03
  64 F= -.30135427E+04 E0= -.30135427E+04  d E =-.117170E-01  mag=     0.0000
       N       E                     dE             d eps       ncg     rms          rms(c)
DAV:   1    -0.297574152696E+04   -0.48552E-03   -0.16247E-01  5760   0.308E-01    0.139E-01
DAV:   2    -0.297574192197E+04   -0.39501E-03   -0.48542E-03  6912   0.510E-02    0.865E-02
DAV:   3    -0.297574189712E+04    0.24855E-04   -0.18183E-04  6784   0.117E-02    0.475E-02
DAV:   4    -0.297574189575E+04    0.13619E-05   -0.90365E-05  5888   0.795E-03    0.491E-02
DAV:   5    -0.297574188043E+04    0.15325E-04   -0.74079E-05  5888   0.702E-03    0.229E-02
DAV:   6    -0.297574187922E+04    0.12058E-05   -0.20361E-05  5696   0.499E-03
  65 F= -.30135430E+04 E0= -.30135430E+04  d E =-.120237E-01  mag=    -0.0000
       N       E                     dE             d eps       ncg     rms          rms(c)
DAV:   1    -0.297574882619E+04   -0.69458E-02   -0.32826E+00  5696   0.142E+00    0.580E-01
DAV:   2    -0.297575658614E+04   -0.77600E-02   -0.94289E-02  6880   0.228E-01    0.311E-01
DAV:   3    -0.297575610078E+04    0.48536E-03   -0.31797E-03  6752   0.471E-02    0.205E-01
DAV:   4    -0.297575595964E+04    0.14113E-03   -0.16285E-03  6816   0.317E-02    0.183E-01
DAV:   5    -0.297575564974E+04    0.30991E-03   -0.11660E-03  6688   0.290E-02    0.691E-02
DAV:   6    -0.297575564697E+04    0.27724E-05   -0.29881E-04  6912   0.170E-02    0.347E-02
DAV:   7    -0.297575564230E+04    0.46658E-05   -0.67889E-05  6912   0.820E-03
  66 F= -.30135512E+04 E0= -.30135512E+04  d E =-.819436E-02  mag=     0.0000
       N       E                     dE             d eps       ncg     rms          rms(c)
DAV:   1    -0.297575674815E+04   -0.11012E-02   -0.11806E-01  5760   0.270E-01    0.118E-01
DAV:   2    -0.297575702957E+04   -0.28143E-03   -0.34818E-03  6944   0.435E-02    0.548E-02
DAV:   3    -0.297575701440E+04    0.15174E-04   -0.88963E-05  6560   0.864E-03    0.353E-02
DAV:   4    -0.297575701360E+04    0.80245E-06   -0.53303E-05  5920   0.647E-03    0.342E-02
DAV:   5    -0.297575700344E+04    0.10160E-04   -0.40653E-05  5760   0.587E-03    0.118E-02
DAV:   6    -0.297575700444E+04   -0.10057E-05   -0.92272E-06  5120   0.406E-03
  67 F= -.30135514E+04 E0= -.30135514E+04  d E =-.836653E-02  mag=     0.0000
       N       E                     dE             d eps       ncg     rms          rms(c)
DAV:   1    -0.297576149846E+04   -0.44950E-02   -0.34483E+00  5696   0.146E+00    0.582E-01
DAV:   2    -0.297576965153E+04   -0.81531E-02   -0.97649E-02  6912   0.230E-01    0.327E-01
DAV:   3    -0.297576916437E+04    0.48715E-03   -0.26120E-03  6880   0.436E-02    0.203E-01
DAV:   4    -0.297576910177E+04    0.62602E-04   -0.15071E-03  6816   0.318E-02    0.200E-01
DAV:   5    -0.297576876360E+04    0.33817E-03   -0.12884E-03  6720   0.290E-02    0.777E-02
DAV:   6    -0.297576875058E+04    0.13024E-04   -0.33789E-04  6864   0.167E-02    0.395E-02
DAV:   7    -0.297576873998E+04    0.10595E-04   -0.62854E-05  6720   0.856E-03    0.288E-02
DAV:   8    -0.297576873795E+04    0.20297E-05   -0.80319E-06  5216   0.308E-03
  68 F= -.30135600E+04 E0= -.30135600E+04  d E =-.865622E-02  mag=    -0.0000
       N       E                     dE             d eps       ncg     rms          rms(c)
DAV:   1    -0.297576996422E+04   -0.12242E-02   -0.58898E-01  5696   0.602E-01    0.242E-01
DAV:   2    -0.297577137430E+04   -0.14101E-02   -0.16847E-02  6816   0.954E-02    0.137E-01
DAV:   3    -0.297577129127E+04    0.83028E-04   -0.44134E-04  6848   0.182E-02    0.846E-02
DAV:   4    -0.297577128097E+04    0.10299E-04   -0.25546E-04  6656   0.133E-02    0.837E-02
DAV:   5    -0.297577122429E+04    0.56683E-04   -0.22700E-04  6240   0.124E-02    0.326E-02
DAV:   6    -0.297577122286E+04    0.14257E-05   -0.59204E-05  6240   0.734E-03
  69 F= -.30135610E+04 E0= -.30135610E+04  d E =-.959646E-02  mag=    -0.0000
       N       E                     dE             d eps       ncg     rms          rms(c)
DAV:   1    -0.297577431308E+04   -0.30888E-02   -0.33894E+00  5696   0.146E+00    0.584E-01
DAV:   2    -0.297578243463E+04   -0.81215E-02   -0.98250E-02  6816   0.234E-01    0.304E-01
DAV:   3    -0.297578192140E+04    0.51322E-03   -0.23052E-03  6976   0.445E-02    0.192E-01
DAV:   4    -0.297578180337E+04    0.11803E-03   -0.97083E-04  6816   0.295E-02    0.174E-01
DAV:   5    -0.297578157275E+04    0.23062E-03   -0.94948E-04  6752   0.267E-02    0.711E-02
DAV:   6    -0.297578156202E+04    0.10728E-04   -0.32222E-04  6944   0.166E-02    0.388E-02
DAV:   7    -0.297578155194E+04    0.10088E-04   -0.79486E-05  6912   0.953E-03    0.254E-02
DAV:   8    -0.297578154915E+04    0.27842E-05   -0.82662E-06  5280   0.357E-03
  70 F= -.30135695E+04 E0= -.30135695E+04  d E =-.858181E-02  mag=    -0.0000
       N       E                     dE             d eps       ncg     rms          rms(c)
DAV:   1    -0.297578201001E+04   -0.45807E-03   -0.28264E-01  5760   0.421E-01    0.170E-01
DAV:   2    -0.297578269270E+04   -0.68269E-03   -0.82643E-03  6912   0.680E-02    0.876E-02
DAV:   3    -0.297578265050E+04    0.42202E-04   -0.20066E-04  6912   0.132E-02    0.558E-02
DAV:   4    -0.297578264053E+04    0.99715E-05   -0.83763E-05  6400   0.863E-03    0.501E-02
DAV:   5    -0.297578262139E+04    0.19141E-04   -0.86225E-05  6176   0.837E-03    0.216E-02
DAV:   6    -0.297578262040E+04    0.98773E-06   -0.28811E-05  5760   0.558E-03
  71 F= -.30135701E+04 E0= -.30135701E+04  d E =-.908683E-02  mag=    -0.0000
       N       E                     dE             d eps       ncg     rms          rms(c)
DAV:   1    -0.297578805975E+04   -0.54384E-02   -0.35171E+00  5696   0.146E+00    0.594E-01
DAV:   2    -0.297579643895E+04   -0.83792E-02   -0.10026E-01  6848   0.232E-01    0.376E-01
DAV:   3    -0.297579585441E+04    0.58454E-03   -0.23217E-03  6880   0.445E-02    0.204E-01
DAV:   4    -0.297579573765E+04    0.11676E-03   -0.90130E-04  6816   0.311E-02    0.211E-01
DAV:   5    -0.297579548238E+04    0.25526E-03   -0.99344E-04  6848   0.274E-02    0.793E-02
DAV:   6    -0.297579547509E+04    0.72937E-05   -0.35735E-04  6880   0.151E-02    0.417E-02
DAV:   7    -0.297579546127E+04    0.13822E-04   -0.66747E-05  6048   0.812E-03    0.286E-02
DAV:   8    -0.297579546094E+04    0.32387E-06   -0.84182E-06  5280   0.294E-03
  72 F= -.30135785E+04 E0= -.30135785E+04  d E =-.841323E-02  mag=    -0.0000
       N       E                     dE             d eps       ncg     rms          rms(c)
DAV:   1    -0.297579690419E+04   -0.14429E-02   -0.30187E-01  5760   0.428E-01    0.176E-01
DAV:   2    -0.297579763587E+04   -0.73168E-03   -0.87145E-03  6848   0.684E-02    0.110E-01
DAV:   3    -0.297579758819E+04    0.47679E-04   -0.20629E-04  6816   0.132E-02    0.607E-02
DAV:   4    -0.297579758073E+04    0.74626E-05   -0.88582E-05  6080   0.928E-03    0.619E-02
DAV:   5    -0.297579756059E+04    0.20134E-04   -0.99778E-05  6016   0.840E-03    0.256E-02
DAV:   6    -0.297579756012E+04    0.47608E-06   -0.33590E-05  5792   0.484E-03
  73 F= -.30135791E+04 E0= -.30135791E+04  d E =-.904745E-02  mag=    -0.0000
       N       E                     dE             d eps       ncg     rms          rms(c)
DAV:   1    -0.297580171574E+04   -0.41551E-02   -0.34020E+00  5696   0.144E+00    0.586E-01
DAV:   2    -0.297580944627E+04   -0.77305E-02   -0.94804E-02  6816   0.230E-01    0.310E-01
DAV:   3    -0.297580887745E+04    0.56882E-03   -0.21244E-03  6976   0.438E-02    0.190E-01
DAV:   4    -0.297580869608E+04    0.18137E-03   -0.71022E-04  6848   0.290E-02    0.167E-01
DAV:   5    -0.297580849988E+04    0.19620E-03   -0.74459E-04  6656   0.266E-02    0.658E-02
DAV:   6    -0.297580849681E+04    0.30659E-05   -0.33294E-04  6944   0.176E-02    0.425E-02
DAV:   7    -0.297580847788E+04    0.18935E-04   -0.94610E-05  6784   0.934E-03    0.264E-02
DAV:   8    -0.297580847413E+04    0.37421E-05   -0.75819E-06  5216   0.320E-03
  74 F= -.30135871E+04 E0= -.30135871E+04  d E =-.796011E-02  mag=    -0.0000
       N       E                     dE             d eps       ncg     rms          rms(c)
DAV:   1    -0.297580941705E+04   -0.93918E-03   -0.33051E-01  5760   0.450E-01    0.184E-01
DAV:   2    -0.297581017347E+04   -0.75642E-03   -0.92954E-03  6880   0.722E-02    0.991E-02
DAV:   3    -0.297581011486E+04    0.58604E-04   -0.21447E-04  6912   0.143E-02    0.598E-02
DAV:   4    -0.297581009470E+04    0.20164E-04   -0.62065E-05  6432   0.915E-03    0.526E-02
DAV:   5    -0.297581007385E+04    0.20848E-04   -0.66380E-05  6144   0.906E-03    0.185E-02
DAV:   6    -0.297581007447E+04   -0.62055E-06   -0.27511E-05  5760   0.618E-03
  75 F= -.30135876E+04 E0= -.30135876E+04  d E =-.849127E-02  mag=    -0.0000
       N       E                     dE             d eps       ncg     rms          rms(c)
DAV:   1    -0.297581461103E+04   -0.45372E-02   -0.28795E+00  5696   0.133E+00    0.520E-01
DAV:   2    -0.297582128644E+04   -0.66754E-02   -0.80567E-02  6816   0.208E-01    0.270E-01
DAV:   3    -0.297582087633E+04    0.41011E-03   -0.19647E-03  6880   0.377E-02    0.179E-01
DAV:   4    -0.297582078716E+04    0.89166E-04   -0.88323E-04  6816   0.248E-02    0.155E-01
DAV:   5    -0.297582060789E+04    0.17928E-03   -0.81365E-04  6688   0.224E-02    0.698E-02
DAV:   6    -0.297582060456E+04    0.33231E-05   -0.26414E-04  6880   0.141E-02    0.369E-02
DAV:   7    -0.297582059447E+04    0.10094E-04   -0.58792E-05  6144   0.750E-03    0.222E-02
DAV:   8    -0.297582059342E+04    0.10477E-05   -0.64227E-06  5216   0.289E-03
  76 F= -.30135945E+04 E0= -.30135945E+04  d E =-.686144E-02  mag=    -0.0000
       N       E                     dE             d eps       ncg     rms          rms(c)
DAV:   1    -0.297582160184E+04   -0.10074E-02   -0.13032E+00  5696   0.893E-01    0.351E-01
DAV:   2    -0.297582463383E+04   -0.30320E-02   -0.36562E-02  6752   0.141E-01    0.183E-01
DAV:   3    -0.297582444287E+04    0.19096E-03   -0.86313E-04  6720   0.254E-02    0.120E-01
DAV:   4    -0.297582439742E+04    0.45459E-04   -0.36607E-04  6688   0.165E-02    0.103E-01
DAV:   5    -0.297582432243E+04    0.74987E-04   -0.36222E-04  6400   0.153E-02    0.475E-02
DAV:   6    -0.297582431926E+04    0.31637E-05   -0.12583E-04  6656   0.100E-02    0.254E-02
DAV:   7    -0.297582431482E+04    0.44444E-05   -0.27152E-05  5792   0.536E-03
  77 F= -.30135957E+04 E0= -.30135957E+04  d E =-.806720E-02  mag=    -0.0000
       N       E                     dE             d eps       ncg     rms          rms(c)
DAV:   1    -0.297582979531E+04   -0.54760E-02   -0.20503E+00  5696   0.111E+00    0.444E-01
DAV:   2    -0.297583457748E+04   -0.47822E-02   -0.57381E-02  6688   0.174E-01    0.244E-01
DAV:   3    -0.297583431081E+04    0.26667E-03   -0.16127E-03  6784   0.329E-02    0.153E-01
DAV:   4    -0.297583425697E+04    0.53842E-04   -0.75472E-04  6752   0.223E-02    0.144E-01
DAV:   5    -0.297583409586E+04    0.16111E-03   -0.61537E-04  6464   0.196E-02    0.622E-02
DAV:   6    -0.297583409825E+04   -0.23834E-05   -0.20536E-04  6848   0.125E-02    0.337E-02
DAV:   7    -0.297583408947E+04    0.87786E-05   -0.46115E-05  6016   0.679E-03
  78 F= -.30136023E+04 E0= -.30136023E+04  d E =-.665086E-02  mag=    -0.0000
       N       E                     dE             d eps       ncg     rms          rms(c)
DAV:   1    -0.297583511382E+04   -0.10156E-02   -0.31731E+00  5696   0.138E+00    0.554E-01
DAV:   2    -0.297584251753E+04   -0.74037E-02   -0.88851E-02  6656   0.216E-01    0.302E-01
DAV:   3    -0.297584210878E+04    0.40875E-03   -0.24635E-03  6784   0.406E-02    0.190E-01
DAV:   4    -0.297584203081E+04    0.77972E-04   -0.11823E-03  6720   0.277E-02    0.179E-01
DAV:   5    -0.297584177439E+04    0.25642E-03   -0.95231E-04  6464   0.243E-02    0.767E-02
DAV:   6    -0.297584177751E+04   -0.31125E-05   -0.31431E-04  6848   0.157E-02    0.419E-02
DAV:   7    -0.297584176388E+04    0.13631E-04   -0.74927E-05  6528   0.855E-03    0.254E-02
DAV:   8    -0.297584176337E+04    0.50850E-06   -0.75701E-06  5344   0.312E-03
  79 F= -.30136055E+04 E0= -.30136055E+04  d E =-.985544E-02  mag=    -0.0000
       N       E                     dE             d eps       ncg     rms          rms(c)
DAV:   1    -0.297584751796E+04   -0.57541E-02   -0.19057E+00  5696   0.109E+00    0.437E-01
DAV:   2    -0.297585191274E+04   -0.43948E-02   -0.53660E-02  6848   0.175E-01    0.234E-01
DAV:   3    -0.297585160281E+04    0.30993E-03   -0.16166E-03  6912   0.362E-02    0.148E-01
DAV:   4    -0.297585151795E+04    0.84858E-04   -0.74808E-04  6816   0.236E-02    0.134E-01
DAV:   5    -0.297585136292E+04    0.15503E-03   -0.64097E-04  6432   0.221E-02    0.583E-02
DAV:   6    -0.297585135281E+04    0.10113E-04   -0.20467E-04  6944   0.138E-02    0.306E-02
DAV:   7    -0.297585134703E+04    0.57754E-05   -0.39780E-05  6272   0.732E-03
  80 F= -.30136122E+04 E0= -.30136122E+04  d E =-.670099E-02  mag=    -0.0000
       N       E                     dE             d eps       ncg     rms          rms(c)
DAV:   1    -0.297585284068E+04   -0.14879E-02   -0.90033E-01  5760   0.751E-01    0.303E-01
DAV:   2    -0.297585490736E+04   -0.20667E-02   -0.25424E-02  6848   0.120E-01    0.156E-01
DAV:   3    -0.297585476362E+04    0.14374E-03   -0.74414E-04  6912   0.250E-02    0.996E-02
DAV:   4    -0.297585472835E+04    0.35270E-04   -0.37289E-04  6688   0.167E-02    0.923E-02
[...]
DAV:   6    -0.297625347586E+04   -0.21731E-05   -0.13159E-05  4960   0.440E-03
 273 F= -.30139238E+04 E0= -.30139238E+04  d E =-.299162E-02  mag=    -0.0000
       N       E                     dE             d eps       ncg     rms          rms(c)
DAV:   1    -0.297625423051E+04   -0.75682E-03   -0.73261E-01  5696   0.756E-01    0.227E-01
DAV:   2    -0.297625571138E+04   -0.14809E-02   -0.17307E-02  6848   0.108E-01    0.118E-01
DAV:   3    -0.297625561578E+04    0.95598E-04   -0.33399E-04  6976   0.191E-02    0.757E-02
DAV:   4    -0.297625562758E+04   -0.11797E-04   -0.25290E-04  6784   0.170E-02    0.628E-02
DAV:   5    -0.297625560481E+04    0.22775E-04   -0.18543E-04  6816   0.124E-02    0.224E-02
DAV:   6    -0.297625560421E+04    0.60105E-06   -0.31614E-05  5632   0.577E-03
 274 F= -.30139260E+04 E0= -.30139260E+04  d E =-.215379E-02  mag=    -0.0000
       N       E                     dE             d eps       ncg     rms          rms(c)
DAV:   1    -0.297625488606E+04    0.71875E-03   -0.55773E-01  5696   0.660E-01    0.201E-01
DAV:   2    -0.297625601880E+04   -0.11327E-02   -0.13256E-02  6848   0.944E-02    0.102E-01
DAV:   3    -0.297625594731E+04    0.71492E-04   -0.26437E-04  6976   0.170E-02    0.659E-02
DAV:   4    -0.297625597016E+04   -0.22855E-04   -0.24322E-04  6848   0.155E-02    0.598E-02
DAV:   5    -0.297625593819E+04    0.31972E-04   -0.17544E-04  6752   0.115E-02    0.182E-02
DAV:   6    -0.297625593908E+04   -0.88708E-06   -0.21299E-05  5312   0.539E-03
 275 F= -.30139263E+04 E0= -.30139263E+04  d E =-.251007E-02  mag=    -0.0000
       N       E                     dE             d eps       ncg     rms          rms(c)
DAV:   1    -0.297625664809E+04   -0.70990E-03   -0.70298E-01  5696   0.738E-01    0.218E-01
DAV:   2    -0.297625807748E+04   -0.14294E-02   -0.16657E-02  6752   0.105E-01    0.114E-01
DAV:   3    -0.297625798789E+04    0.89590E-04   -0.30078E-04  6944   0.180E-02    0.741E-02
DAV:   4    -0.297625800360E+04   -0.15711E-04   -0.26521E-04  6816   0.175E-02    0.588E-02
DAV:   5    -0.297625798140E+04    0.22204E-04   -0.18152E-04  6880   0.122E-02    0.216E-02
DAV:   6    -0.297625798055E+04    0.85105E-06   -0.26668E-05  5568   0.558E-03
 276 F= -.30139283E+04 E0= -.30139283E+04  d E =-.200758E-02  mag=    -0.0000
       N       E                     dE             d eps       ncg     rms          rms(c)
DAV:   1    -0.297625760981E+04    0.37159E-03   -0.41111E-01  5696   0.564E-01    0.169E-01
DAV:   2    -0.297625844925E+04   -0.83944E-03   -0.97938E-03  6816   0.807E-02    0.871E-02
DAV:   3    -0.297625839819E+04    0.51061E-04   -0.18838E-04  6912   0.144E-02    0.574E-02
DAV:   4    -0.297625841591E+04   -0.17717E-04   -0.17242E-04  6848   0.131E-02    0.513E-02
DAV:   5    -0.297625839448E+04    0.21428E-04   -0.12700E-04  6592   0.104E-02    0.157E-02
DAV:   6    -0.297625839578E+04   -0.12992E-05   -0.18720E-05  5088   0.498E-03
 277 F= -.30139287E+04 E0= -.30139287E+04  d E =-.239454E-02  mag=    -0.0000
       N       E                     dE             d eps       ncg     rms          rms(c)
DAV:   1    -0.297625949371E+04   -0.10992E-02   -0.50573E-01  5696   0.630E-01    0.204E-01
DAV:   2    -0.297626054267E+04   -0.10490E-02   -0.12541E-02  6784   0.928E-02    0.976E-02
DAV:   3    -0.297626045719E+04    0.85481E-04   -0.25805E-04  7008   0.181E-02    0.627E-02
DAV:   4    -0.297626046270E+04   -0.55070E-05   -0.20984E-04  6912   0.160E-02    0.505E-02
DAV:   5    -0.297626044155E+04    0.21154E-04   -0.13131E-04  6944   0.110E-02    0.181E-02
DAV:   6    -0.297626044224E+04   -0.69587E-06   -0.21067E-05  5312   0.511E-03
 278 F= -.30139308E+04 E0= -.30139308E+04  d E =-.205874E-02  mag=    -0.0000
       N       E                     dE             d eps       ncg     rms          rms(c)
DAV:   1    -0.297626046123E+04   -0.19686E-04   -0.10349E-01  5696   0.285E-01    0.951E-02
DAV:   2    -0.297626067947E+04   -0.21824E-03   -0.25921E-03  6944   0.422E-02    0.443E-02
DAV:   3    -0.297626066357E+04    0.15900E-04   -0.61870E-05  6816   0.900E-03    0.299E-02
DAV:   4    -0.297626066610E+04   -0.25216E-05   -0.44912E-05  5824   0.684E-03    0.257E-02
DAV:   5    -0.297626066134E+04    0.47513E-05   -0.30206E-05  5600   0.627E-03
 279 F= -.30139310E+04 E0= -.30139310E+04  d E =-.228294E-02  mag=    -0.0000
       N       E                     dE             d eps       ncg     rms          rms(c)
DAV:   1    -0.297626194804E+04   -0.12819E-02   -0.37369E-01  5696   0.545E-01    0.167E-01
DAV:   2    -0.297626270533E+04   -0.75729E-03   -0.90113E-03  6784   0.795E-02    0.802E-02
DAV:   3    -0.297626264576E+04    0.59570E-04   -0.17648E-04  6944   0.144E-02    0.509E-02
DAV:   4    -0.297626263114E+04    0.14625E-04   -0.12696E-04  6816   0.132E-02    0.270E-02
DAV:   5    -0.297626263137E+04   -0.23009E-06   -0.43082E-05  6784   0.707E-03
 280 F= -.30139328E+04 E0= -.30139328E+04  d E =-.181311E-02  mag=    -0.0000
       N       E                     dE             d eps       ncg     rms          rms(c)
DAV:   1    -0.297626277406E+04   -0.14292E-03   -0.15129E-01  5760   0.347E-01    0.110E-01
DAV:   2    -0.297626308361E+04   -0.30955E-03   -0.37025E-03  6816   0.511E-02    0.511E-02
DAV:   3    -0.297626306008E+04    0.23526E-04   -0.75369E-05  6976   0.960E-03    0.324E-02
DAV:   4    -0.297626305791E+04    0.21749E-05   -0.56334E-05  6592   0.890E-03    0.222E-02
DAV:   5    -0.297626305563E+04    0.22800E-05   -0.26996E-05  5696   0.542E-03
 281 F= -.30139331E+04 E0= -.30139331E+04  d E =-.213780E-02  mag=    -0.0000
       N       E                     dE             d eps       ncg     rms          rms(c)
DAV:   1    -0.297626404642E+04   -0.98851E-03   -0.44725E-01  5696   0.601E-01    0.175E-01
DAV:   2    -0.297626493006E+04   -0.88364E-03   -0.10551E-02  6848   0.868E-02    0.862E-02
DAV:   3    -0.297626486300E+04    0.67059E-04   -0.20955E-04  6976   0.159E-02    0.540E-02
DAV:   4    -0.297626484790E+04    0.15101E-04   -0.11118E-04  6848   0.132E-02    0.395E-02
DAV:   5    -0.297626484099E+04    0.69091E-05   -0.58026E-05  6816   0.936E-03
 282 F= -.30139347E+04 E0= -.30139347E+04  d E =-.161627E-02  mag=    -0.0000
       N       E                     dE             d eps       ncg     rms          rms(c)
DAV:   1    -0.297626496452E+04   -0.11662E-03   -0.38308E-02  5760   0.176E-01    0.557E-02
DAV:   2    -0.297626504036E+04   -0.75845E-04   -0.93074E-04  6880   0.259E-02    0.252E-02
DAV:   3    -0.297626503539E+04    0.49710E-05   -0.19741E-05  5376   0.541E-03    0.161E-02
DAV:   4    -0.297626503586E+04   -0.46880E-06   -0.13371E-05  4864   0.491E-03    0.132E-02
DAV:   5    -0.297626503576E+04    0.99535E-07   -0.10295E-05  4928   0.408E-03
 283 F= -.30139349E+04 E0= -.30139349E+04  d E =-.176159E-02  mag=    -0.0000
       N       E                     dE             d eps       ncg     rms          rms(c)
DAV:   1    -0.297626595074E+04   -0.91488E-03   -0.25835E-01  5696   0.461E-01    0.142E-01
DAV:   2    -0.297626647561E+04   -0.52487E-03   -0.64045E-03  6816   0.685E-02    0.677E-02
DAV:   3    -0.297626642427E+04    0.51344E-04   -0.14000E-04  6944   0.132E-02    0.417E-02
DAV:   4    -0.297626641155E+04    0.12717E-04   -0.79356E-05  6880   0.106E-02    0.293E-02
DAV:   5    -0.297626640649E+04    0.50591E-05   -0.33332E-05  5952   0.684E-03
 284 F= -.30139362E+04 E0= -.30139362E+04  d E =-.131172E-02  mag=    -0.0000
       N       E                     dE             d eps       ncg     rms          rms(c)
DAV:   1    -0.297626647394E+04   -0.62382E-04   -0.26243E-02  5824   0.147E-01    0.491E-02
DAV:   2    -0.297626652731E+04   -0.53376E-04   -0.66743E-04  6912   0.222E-02    0.218E-02
DAV:   3    -0.297626652219E+04    0.51185E-05   -0.15616E-05  5056   0.483E-03    0.144E-02
DAV:   4    -0.297626652255E+04   -0.35501E-06   -0.13777E-05  4960   0.416E-03    0.127E-02
DAV:   5    -0.297626652126E+04    0.12890E-05   -0.94371E-06  4832   0.347E-03
 285 F= -.30139363E+04 E0= -.30139363E+04  d E =-.140755E-02  mag=    -0.0000
       N       E                     dE             d eps       ncg     rms          rms(c)
DAV:   1    -0.297626729005E+04   -0.76750E-03   -0.25758E-01  5696   0.460E-01    0.133E-01
DAV:   2    -0.297626780621E+04   -0.51616E-03   -0.61170E-03  6784   0.665E-02    0.632E-02
DAV:   3    -0.297626776270E+04    0.43517E-04   -0.11702E-04  6944   0.120E-02    0.400E-02
DAV:   4    -0.297626775207E+04    0.10626E-04   -0.79108E-05  6784   0.107E-02    0.265E-02
DAV:   5    -0.297626774812E+04    0.39515E-05   -0.37774E-05  6112   0.662E-03
 286 F= -.30139374E+04 E0= -.30139374E+04  d E =-.107161E-02  mag=    -0.0000
       N       E                     dE             d eps       ncg     rms          rms(c)
DAV:   1    -0.297626785533E+04   -0.10326E-03   -0.46481E-02  5760   0.195E-01    0.603E-02
DAV:   2    -0.297626794834E+04   -0.93013E-04   -0.11268E-03  6880   0.287E-02    0.279E-02
DAV:   3    -0.297626794108E+04    0.72620E-05   -0.25490E-05  5856   0.584E-03    0.177E-02
DAV:   4    -0.297626794092E+04    0.15600E-06   -0.19410E-05  5056   0.483E-03    0.164E-02
DAV:   5    -0.297626793884E+04    0.20777E-05   -0.13692E-05  4832   0.423E-03
 287 F= -.30139375E+04 E0= -.30139375E+04  d E =-.119627E-02  mag=    -0.0000
       N       E                     dE             d eps       ncg     rms          rms(c)
DAV:   1    -0.297626864811E+04   -0.70719E-03   -0.23512E-01  5696   0.439E-01    0.126E-01
DAV:   2    -0.297626911656E+04   -0.46844E-03   -0.55732E-03  6880   0.635E-02    0.590E-02
DAV:   3    -0.297626907854E+04    0.38017E-04   -0.10835E-04  6976   0.113E-02    0.379E-02
DAV:   4    -0.297626907185E+04    0.66890E-05   -0.70961E-05  6880   0.959E-03    0.280E-02
DAV:   5    -0.297626906587E+04    0.59851E-05   -0.43457E-05  5888   0.661E-03
 288 F= -.30139385E+04 E0= -.30139385E+04  d E =-.997175E-03  mag=    -0.0000
       N       E                     dE             d eps       ncg     rms          rms(c)
DAV:   1    -0.297626918159E+04   -0.10974E-03   -0.64010E-02  5760   0.229E-01    0.688E-02
DAV:   2    -0.297626930857E+04   -0.12698E-03   -0.15356E-03  7040   0.334E-02    0.314E-02
DAV:   3    -0.297626929862E+04    0.99473E-05   -0.32597E-05  6080   0.644E-03    0.200E-02
DAV:   4    -0.297626929714E+04    0.14781E-05   -0.19360E-05  5184   0.518E-03    0.167E-02
DAV:   5    -0.297626929536E+04    0.17839E-05   -0.14694E-05  4896   0.446E-03
 289 F= -.30139386E+04 E0= -.30139386E+04  d E =-.115842E-02  mag=    -0.0000
       N       E                     dE             d eps       ncg     rms          rms(c)
DAV:   1    -0.297626967315E+04   -0.37600E-03   -0.25125E-01  5696   0.452E-01    0.132E-01
DAV:   2    -0.297627017780E+04   -0.50465E-03   -0.60299E-03  6784   0.660E-02    0.616E-02
DAV:   3    -0.297627013707E+04    0.40729E-04   -0.12827E-04  6880   0.123E-02    0.397E-02
DAV:   4    -0.297627013293E+04    0.41446E-05   -0.84364E-05  6880   0.100E-02    0.324E-02
DAV:   5    -0.297627012324E+04    0.96895E-05   -0.57600E-05  6048   0.728E-03
 290 F= -.30139396E+04 E0= -.30139396E+04  d E =-.923181E-03  mag=    -0.0000
       N       E                     dE             d eps       ncg     rms          rms(c)
DAV:   1    -0.297627012400E+04    0.89321E-05   -0.34849E-02  5824   0.168E-01    0.527E-02
DAV:   2    -0.297627019279E+04   -0.68794E-04   -0.85039E-04  6944   0.250E-02    0.236E-02
DAV:   3    -0.297627018727E+04    0.55159E-05   -0.19562E-05  5600   0.523E-03    0.152E-02
DAV:   4    -0.297627018624E+04    0.10332E-05   -0.94741E-06  4928   0.395E-03    0.120E-02
DAV:   5    -0.297627018556E+04    0.68475E-06   -0.73485E-06  4832   0.362E-03
 291 F= -.30139397E+04 E0= -.30139397E+04  d E =-.102098E-02  mag=    -0.0000
       N       E                     dE             d eps       ncg     rms          rms(c)
DAV:   1    -0.297627049417E+04   -0.30793E-03   -0.27773E-01  5696   0.474E-01    0.135E-01
DAV:   2    -0.297627105483E+04   -0.56066E-03   -0.66425E-03  6784   0.689E-02    0.646E-02
DAV:   3    -0.297627101272E+04    0.42102E-04   -0.13472E-04  6944   0.125E-02    0.413E-02
DAV:   4    -0.297627100893E+04    0.37978E-05   -0.94851E-05  6784   0.104E-02    0.355E-02
DAV:   5    -0.297627099727E+04    0.11655E-04   -0.64951E-05  6016   0.778E-03    0.129E-02
DAV:   6    -0.297627099607E+04    0.12044E-05   -0.10660E-05  4960   0.370E-03
 292 F= -.30139406E+04 E0= -.30139406E+04  d E =-.922938E-03  mag=    -0.0000
       N       E                     dE             d eps       ncg     rms          rms(c)
DAV:   1    -0.297627097064E+04    0.26629E-04   -0.39831E-02  5760   0.180E-01    0.537E-02
DAV:   2    -0.297627105226E+04   -0.81621E-04   -0.96844E-04  6944   0.263E-02    0.236E-02
DAV:   3    -0.297627104612E+04    0.61438E-05   -0.16545E-05  5280   0.487E-03    0.154E-02
DAV:   4    -0.297627104532E+04    0.80501E-06   -0.13196E-05  4928   0.467E-03    0.116E-02
DAV:   5    -0.297627104477E+04    0.54541E-06   -0.87723E-06  4896   0.335E-03
 293 F= -.30139407E+04 E0= -.30139407E+04  d E =-.101420E-02  mag=    -0.0000
       N       E                     dE             d eps       ncg     rms          rms(c)
DAV:   1    -0.297627152398E+04   -0.47866E-03   -0.21620E-01  5696   0.417E-01    0.118E-01
DAV:   2    -0.297627195855E+04   -0.43458E-03   -0.51208E-03  6784   0.601E-02    0.551E-02
DAV:   3    -0.297627192795E+04    0.30607E-04   -0.95655E-05  6944   0.104E-02    0.352E-02
DAV:   4    -0.297627192218E+04    0.57629E-05   -0.72707E-05  6816   0.981E-03    0.247E-02
DAV:   5    -0.297627191856E+04    0.36200E-05   -0.42732E-05  5984   0.596E-03
 294 F= -.30139416E+04 E0= -.30139416E+04  d E =-.894443E-03  mag=    -0.0000
       N       E                     dE             d eps       ncg     rms          rms(c)
DAV:   1    -0.297627185872E+04    0.63465E-04   -0.16911E-01  5696   0.368E-01    0.107E-01
DAV:   2    -0.297627219725E+04   -0.33853E-03   -0.40326E-03  6816   0.535E-02    0.490E-02
DAV:   3    -0.297627217331E+04    0.23942E-04   -0.78200E-05  6880   0.962E-03    0.310E-02
DAV:   4    -0.297627216771E+04    0.56025E-05   -0.52181E-05  6560   0.880E-03    0.211E-02
DAV:   5    -0.297627216578E+04    0.19300E-05   -0.28978E-05  5536   0.552E-03
 295 F= -.30139418E+04 E0= -.30139418E+04  d E =-.115997E-02  mag=    -0.0000
       N       E                     dE             d eps       ncg     rms          rms(c)
DAV:   1    -0.297627240172E+04   -0.23401E-03   -0.27190E-01  5696   0.465E-01    0.129E-01
DAV:   2    -0.297627294973E+04   -0.54801E-03   -0.65256E-03  6720   0.680E-02    0.627E-02
DAV:   3    -0.297627291302E+04    0.36708E-04   -0.12943E-04  6848   0.118E-02    0.403E-02
DAV:   4    -0.297627290302E+04    0.10003E-04   -0.76911E-05  6912   0.105E-02    0.255E-02
DAV:   5    -0.297627290123E+04    0.17830E-05   -0.43353E-05  6272   0.654E-03
 296 F= -.30139427E+04 E0= -.30139427E+04  d E =-.884489E-03  mag=    -0.0000
       N       E                     dE             d eps       ncg     rms          rms(c)
DAV:   1    -0.297627283520E+04    0.67823E-04   -0.71344E-02  5760   0.238E-01    0.694E-02
DAV:   2    -0.297627297754E+04   -0.14234E-03   -0.17350E-03  6912   0.352E-02    0.321E-02
DAV:   3    -0.297627296818E+04    0.93562E-05   -0.37353E-05  6496   0.651E-03    0.208E-02
DAV:   4    -0.297627296586E+04    0.23146E-05   -0.18616E-05  5376   0.563E-03    0.140E-02
DAV:   5    -0.297627296548E+04    0.38120E-06   -0.12192E-05  4960   0.404E-03
 297 F= -.30139429E+04 E0= -.30139429E+04  d E =-.102515E-02  mag=    -0.0000
       N       E                     dE             d eps       ncg     rms          rms(c)
DAV:   1    -0.297627301488E+04   -0.49019E-04   -0.29670E-01  5696   0.487E-01    0.141E-01
DAV:   2    -0.297627361765E+04   -0.60277E-03   -0.71925E-03  6752   0.716E-02    0.671E-02
DAV:   3    -0.297627357291E+04    0.44747E-04   -0.14593E-04  6944   0.129E-02    0.433E-02
DAV:   4    -0.297627356752E+04    0.53922E-05   -0.10071E-04  6848   0.111E-02    0.338E-02
DAV:   5    -0.297627355885E+04    0.86688E-05   -0.66487E-05  6144   0.772E-03
 298 F= -.30139439E+04 E0= -.30139439E+04  d E =-.985651E-03  mag=    -0.0000
       N       E                     dE             d eps       ncg     rms          rms(c)
DAV:   1    -0.297627343080E+04    0.13671E-03   -0.41532E-02  5760   0.182E-01    0.569E-02
DAV:   2    -0.297627351452E+04   -0.83721E-04   -0.10320E-03  6944   0.273E-02    0.260E-02
DAV:   3    -0.297627350865E+04    0.58731E-05   -0.24192E-05  5920   0.559E-03    0.170E-02
DAV:   4    -0.297627350779E+04    0.85786E-06   -0.11979E-05  4992   0.431E-03    0.134E-02
DAV:   5    -0.297627350698E+04    0.81025E-06   -0.94565E-06  4896   0.397E-03
 299 F= -.30139439E+04 E0= -.30139439E+04  d E =-.108014E-02  mag=    -0.0000
       N       E                     dE             d eps       ncg     rms          rms(c)
DAV:   1    -0.297627345321E+04    0.54584E-04   -0.30048E-01  5696   0.489E-01    0.140E-01
DAV:   2    -0.297627406598E+04   -0.61277E-03   -0.72306E-03  6848   0.715E-02    0.678E-02
DAV:   3    -0.297627402452E+04    0.41453E-04   -0.14065E-04  6944   0.127E-02    0.441E-02
DAV:   4    -0.297627401968E+04    0.48397E-05   -0.98453E-05  6848   0.110E-02    0.333E-02
DAV:   5    -0.297627401252E+04    0.71674E-05   -0.60124E-05  6240   0.750E-03
 300 F= -.30139449E+04 E0= -.30139449E+04  d E =-.924965E-03  mag=    -0.0000
       N       E                     dE             d eps       ncg     rms          rms(c)
DAV:   1    -0.297627389997E+04    0.11971E-03   -0.27408E-02  5824   0.148E-01    0.464E-02
DAV:   2    -0.297627395585E+04   -0.55878E-04   -0.68784E-04  6912   0.222E-02    0.219E-02
DAV:   3    -0.297627395272E+04    0.31300E-05   -0.17445E-05  5344   0.472E-03    0.146E-02
DAV:   4    -0.297627395256E+04    0.15832E-06   -0.10143E-05  4736   0.350E-03    0.122E-02
DAV:   5    -0.297627395210E+04    0.46438E-06   -0.83983E-06  4704   0.347E-03
 301 F= -.30139449E+04 E0= -.30139449E+04  d E =-.990941E-03  mag=    -0.0000
       N       E                     dE             d eps       ncg     rms          rms(c)
DAV:   1    -0.297627403899E+04   -0.86433E-04   -0.21858E-01  5696   0.420E-01    0.133E-01
DAV:   2    -0.297627449130E+04   -0.45230E-03   -0.55119E-03  6752   0.632E-02    0.606E-02
DAV:   3    -0.297627445140E+04    0.39896E-04   -0.12179E-04  6912   0.123E-02    0.387E-02
DAV:   4    -0.297627444330E+04    0.80971E-05   -0.80504E-05  6848   0.106E-02    0.270E-02
DAV:   5    -0.297627443816E+04    0.51432E-05   -0.42023E-05  6144   0.686E-03
 302 F= -.30139457E+04 E0= -.30139457E+04  d E =-.771351E-03  mag=    -0.0000
       N       E                     dE             d eps       ncg     rms          rms(c)
DAV:   1    -0.297627440874E+04    0.34569E-04   -0.38130E-03  6176   0.555E-02    0.222E-02
DAV:   2    -0.297627441658E+04   -0.78427E-05   -0.10834E-04  6912   0.917E-03    0.106E-02
DAV:   3    -0.297627441625E+04    0.32416E-06   -0.62744E-06  4864   0.279E-03    0.836E-03
DAV:   4    -0.297627441573E+04    0.52043E-06   -0.32306E-06  4688   0.192E-03    0.519E-03
DAV:   5    -0.297627441580E+04   -0.67055E-07   -0.14472E-06  4832   0.203E-03
 303 F= -.30139457E+04 E0= -.30139457E+04  d E =-.786583E-03  mag=    -0.0000
       N       E                     dE             d eps       ncg     rms          rms(c)
DAV:   1    -0.297627445353E+04   -0.37792E-04   -0.17079E-01  5696   0.374E-01    0.115E-01
DAV:   2    -0.297627480372E+04   -0.35019E-03   -0.42257E-03  6816   0.553E-02    0.522E-02
DAV:   3    -0.297627477347E+04    0.30248E-04   -0.88447E-05  6944   0.103E-02    0.333E-02
DAV:   4    -0.297627476552E+04    0.79529E-05   -0.58835E-05  6880   0.914E-03    0.194E-02
DAV:   5    -0.297627476431E+04    0.12020E-05   -0.22278E-05  5536   0.501E-03
 304 F= -.30139464E+04 E0= -.30139464E+04  d E =-.651343E-03  mag=    -0.0000
