       N       E                     dE             d eps       ncg     rms          rms(c)
DAV:   1     0.618047319748E+03    0.61805E+03   -0.12351E+04   256   0.623E+02
DAV:   2     0.224015460072E+03   -0.39403E+03   -0.38149E+03   352   0.116E+02
DAV:   3    -0.538087303138E+02   -0.27782E+03   -0.26705E+03   288   0.989E+01
DAV:   4    -0.104633614148E+03   -0.50825E+02   -0.50588E+02   256   0.596E+01
DAV:   5    -0.106028227434E+03   -0.13946E+01   -0.13815E+01   272   0.108E+01    0.411E+01
DAV:   6    -0.664589173943E+02    0.39569E+02   -0.68359E+01   208   0.322E+01    0.137E+01
DAV:   7    -0.848925925040E+02   -0.18434E+02   -0.16443E+01   256   0.171E+01    0.145E+01
DAV:   8    -0.933128010447E+02   -0.84202E+01   -0.49561E+00   256   0.745E+00    0.645E+00
DAV:   9    -0.977039583558E+02   -0.43912E+01   -0.19607E+00   256   0.488E+00    0.263E+00
DAV:  10    -0.988750041013E+02   -0.11710E+01   -0.20748E-01   224   0.186E+00    0.182E+00
DAV:  11    -0.101512012965E+03   -0.26370E+01   -0.67251E-01   256   0.290E+00    0.133E+00
DAV:  12    -0.102209989101E+03   -0.69798E+00   -0.86611E-02   240   0.109E+00    0.110E+00
DAV:  13    -0.103710510926E+03   -0.15005E+01   -0.37918E-01   208   0.190E+00    0.648E-01
DAV:  14    -0.104147519660E+03   -0.43701E+00   -0.66716E-02   192   0.867E-01    0.507E-01
DAV:  15    -0.104424130165E+03   -0.27661E+00   -0.10509E-02   240   0.435E-01    0.411E-01
DAV:  16    -0.104727036018E+03   -0.30291E+00   -0.10627E-02   224   0.435E-01    0.293E-01
DAV:  17    -0.104841660703E+03   -0.11462E+00   -0.19878E-03   208   0.248E-01    0.236E-01
DAV:  18    -0.104942560228E+03   -0.10090E+00   -0.94033E-04   256   0.173E-01    0.170E-01
DAV:  19    -0.105003073284E+03   -0.60513E-01   -0.39567E-04   240   0.115E-01    0.113E-01
DAV:  20    -0.105028978642E+03   -0.25905E-01   -0.18847E-04   192   0.587E-02    0.852E-02
DAV:  21    -0.105036418154E+03   -0.74395E-02   -0.40170E-04   224   0.621E-02    0.550E-02
DAV:  22    -0.105034896215E+03    0.15219E-02   -0.24479E-04   192   0.624E-02    0.382E-02
DAV:  23    -0.105041065539E+03   -0.61693E-02   -0.57977E-05   224   0.427E-02    0.239E-02
DAV:  24    -0.105048410661E+03   -0.73451E-02   -0.45844E-05   208   0.363E-02    0.153E-02
DAV:  25    -0.105053113957E+03   -0.47033E-02   -0.18174E-05   160   0.264E-02    0.909E-03
DAV:  26    -0.105057780871E+03   -0.46669E-02   -0.11572E-05   128   0.147E-02    0.607E-03
DAV:  27    -0.105060789280E+03   -0.30084E-02   -0.66187E-06   160   0.117E-02    0.415E-03
DAV:  28    -0.105062890288E+03   -0.21010E-02   -0.46161E-06   128   0.933E-03    0.277E-03
DAV:  29    -0.105064428389E+03   -0.15381E-02   -0.29123E-06   176   0.701E-03    0.139E-03
DAV:  30    -0.105064941455E+03   -0.51307E-03   -0.11547E-06   160   0.467E-03    0.105E-03
DAV:  31    -0.105065141158E+03   -0.19970E-03   -0.46221E-07   192   0.286E-03    0.616E-04
DAV:  32    -0.105065298769E+03   -0.15761E-03   -0.40010E-07   128   0.233E-03    0.332E-04
DAV:  33    -0.105065343901E+03   -0.45132E-04   -0.11092E-07   192   0.125E-03    0.207E-04
DAV:  34    -0.105065373188E+03   -0.29288E-04   -0.30002E-08   192   0.813E-04    0.115E-04
DAV:  35    -0.105065384208E+03   -0.11020E-04    0.71120E-09   192   0.488E-04    0.694E-05
DAV:  36    -0.105065387148E+03   -0.29400E-05    0.24475E-08   192   0.251E-04
   1 F= -.10560268E+03 E0= -.10560268E+03  d E =-.105603E+03  mag=     0.0000
       N       E                     dE             d eps       ncg     rms          rms(c)
DAV:   1    -0.105059153981E+03    0.62302E-02   -0.42398E-01   224   0.316E+00    0.246E-01
DAV:   2    -0.105059607315E+03   -0.45333E-03   -0.14236E-02   240   0.572E-01    0.164E-01
DAV:   3    -0.105059131268E+03    0.47605E-03   -0.65987E-04   256   0.149E-01    0.839E-02
DAV:   4    -0.105058796732E+03    0.33454E-03   -0.46802E-04   256   0.107E-01    0.204E-02
DAV:   5    -0.105058792128E+03    0.46042E-05   -0.34994E-05   256   0.361E-02
   2 F= -.10559608E+03 E0= -.10559608E+03  d E =0.659777E-02  mag=     0.0000
       N       E                     dE             d eps       ncg     rms          rms(c)
DAV:   1    -0.105065192572E+03   -0.63958E-02   -0.33623E-01   224   0.275E+00    0.218E-01
DAV:   2    -0.105065765150E+03   -0.57258E-03   -0.10376E-02   240   0.511E-01    0.142E-01
DAV:   3    -0.105065556464E+03    0.20869E-03   -0.48017E-04   240   0.136E-01    0.696E-02
DAV:   4    -0.105065462446E+03    0.94018E-04   -0.30085E-04   224   0.909E-02    0.157E-02
DAV:   5    -0.105065451496E+03    0.10950E-04   -0.24421E-05   256   0.323E-02    0.104E-02
DAV:   6    -0.105065450315E+03    0.11810E-05   -0.88593E-06   192   0.188E-02
   3 F= -.10560274E+03 E0= -.10560274E+03  d E =-.628752E-04  mag=     0.0000
       N       E                     dE             d eps       ncg     rms          rms(c)
DAV:   1    -0.105065452569E+03   -0.10728E-05   -0.26083E-05   256   0.249E-02    0.347E-03
DAV:   2    -0.105065458799E+03   -0.62299E-05   -0.80152E-07   192   0.432E-03    0.220E-03
DAV:   3    -0.105065465776E+03   -0.69775E-05   -0.25056E-07   192   0.274E-03    0.158E-03
DAV:   4    -0.105065476339E+03   -0.10563E-04   -0.63529E-07   192   0.390E-03    0.727E-04
DAV:   5    -0.105065483111E+03   -0.67716E-05   -0.35193E-07   192   0.207E-03
   4 F= -.10560277E+03 E0= -.10560277E+03  d E =-.956494E-04  mag=     0.0000
       N       E                     dE             d eps       ncg     rms          rms(c)
DAV:   1    -0.105065597276E+03   -0.12094E-03   -0.41545E-02   256   0.946E-01    0.470E-02
DAV:   2    -0.105065611599E+03   -0.14323E-04   -0.64851E-04   256   0.135E-01    0.270E-02
DAV:   3    -0.105065612529E+03   -0.93031E-06   -0.51108E-05   256   0.367E-02    0.151E-02
DAV:   4    -0.105065616212E+03   -0.36824E-05   -0.46969E-06   192   0.151E-02    0.650E-03
DAV:   5    -0.105065618974E+03   -0.27625E-05   -0.22540E-06   192   0.797E-03
   5 F= -.10560291E+03 E0= -.10560291E+03  d E =-.141824E-03  mag=     0.0000
       N       E                     dE             d eps       ncg     rms          rms(c)
DAV:   1    -0.105065620012E+03   -0.38007E-05   -0.24012E-05   224   0.229E-02    0.142E-03
DAV:   2    -0.105065620924E+03   -0.91207E-06   -0.58252E-07   192   0.430E-03    0.956E-04
DAV:   3    -0.105065621677E+03   -0.75301E-06   -0.44601E-08   192   0.148E-03    0.544E-04
DAV:   4    -0.105065622411E+03   -0.73388E-06    0.23942E-09   192   0.770E-04    0.228E-04
DAV:   5    -0.105065622849E+03   -0.43734E-06    0.22441E-08   192   0.486E-04
   6 F= -.10560292E+03 E0= -.10560292E+03  d E =-.145558E-03  mag=     0.0000
       N       E                     dE             d eps       ncg     rms          rms(c)
DAV:   1    -0.105065657712E+03   -0.35300E-04   -0.21590E-02   224   0.739E-01    0.309E-02
DAV:   2    -0.105065690500E+03   -0.32788E-04   -0.41952E-04   256   0.100E-01    0.250E-02
DAV:   3    -0.105065685733E+03    0.47672E-05   -0.53188E-06   192   0.162E-02    0.162E-02
DAV:   4    -0.105065684434E+03    0.12986E-05   -0.10338E-05   176   0.185E-02    0.298E-03
DAV:   5    -0.105065684012E+03    0.42191E-06   -0.16269E-06   192   0.760E-03
   7 F= -.10560297E+03 E0= -.10560297E+03  d E =-.547373E-04  mag=     0.0000
       N       E                     dE             d eps       ncg     rms          rms(c)
DAV:   1    -0.105065683997E+03    0.43719E-06   -0.10854E-04   256   0.522E-02    0.233E-03
DAV:   2    -0.105065684487E+03   -0.48959E-06   -0.16834E-06   192   0.673E-03    0.184E-03
DAV:   3    -0.105065684834E+03   -0.34781E-06   -0.10326E-07   192   0.204E-03    0.104E-03
DAV:   4    -0.105065685529E+03   -0.69451E-06   -0.34481E-08   192   0.139E-03    0.311E-04
DAV:   5    -0.105065685840E+03   -0.31118E-06    0.15983E-08   192   0.568E-04
   8 F= -.10560297E+03 E0= -.10560297E+03  d E =-.570250E-04  mag=     0.0000
       N       E                     dE             d eps       ncg     rms          rms(c)
DAV:   1    -0.105065730049E+03   -0.44521E-04   -0.57451E-03   192   0.382E-01    0.138E-02
DAV:   2    -0.105065738878E+03   -0.88283E-05   -0.10246E-04   256   0.489E-02    0.958E-03
DAV:   3    -0.105065738517E+03    0.36051E-06   -0.91172E-07   192   0.621E-03    0.591E-03
DAV:   4    -0.105065739264E+03   -0.74627E-06   -0.94978E-07   160   0.606E-03    0.108E-03
DAV:   5    -0.105065739448E+03   -0.18432E-06   -0.23424E-07   192   0.264E-03
   9 F= -.10560302E+03 E0= -.10560302E+03  d E =-.495954E-04  mag=     0.0000
       N       E                     dE             d eps       ncg     rms          rms(c)
DAV:   1    -0.105065713930E+03    0.25334E-04   -0.51724E-02   192   0.115E+00    0.414E-02
DAV:   2    -0.105065790332E+03   -0.76402E-04   -0.92505E-04   224   0.147E-01    0.287E-02
DAV:   3    -0.105065784531E+03    0.58008E-05   -0.84425E-06   192   0.186E-02    0.177E-02
DAV:   4    -0.105065787142E+03   -0.26108E-05   -0.88027E-06   160   0.182E-02    0.314E-03
DAV:   5    -0.105065787403E+03   -0.26157E-06   -0.23012E-06   192   0.791E-03
  10 F= -.10560306E+03 E0= -.10560306E+03  d E =-.854790E-04  mag=     0.0000
