       N       E                     dE             d eps       ncg     rms          rms(c)
DAV:   1     0.187255229055E+05    0.18726E+05   -0.78218E+05  6048   0.104E+03
DAV:   2     0.993260938801E+02   -0.18626E+05   -0.17931E+05  8208   0.272E+02
DAV:   3    -0.305804930515E+04   -0.31574E+04   -0.31400E+04  7056   0.120E+02
DAV:   4    -0.313632252722E+04   -0.78273E+02   -0.77977E+02  7344   0.220E+01
DAV:   5    -0.313780198033E+04   -0.14795E+01   -0.14774E+01  7632   0.282E+00    0.193E+02
DAV:   6    -0.152594949254E+04    0.16119E+04   -0.29859E+03  6912   0.434E+01    0.877E+01
DAV:   7    -0.168857042930E+04   -0.16262E+03   -0.24996E+02  7056   0.117E+01    0.552E+01
DAV:   8    -0.172622272034E+04   -0.37652E+02   -0.27234E+01  7344   0.483E+00    0.415E+01
DAV:   9    -0.190713398774E+04   -0.18091E+03   -0.31687E+01  6912   0.463E+00    0.339E+01
DAV:  10    -0.216078760747E+04   -0.25365E+03   -0.81179E+01  7344   0.631E+00    0.281E+01
DAV:  11    -0.241864914578E+04   -0.25786E+03   -0.11562E+02  7056   0.756E+00    0.221E+01
DAV:  12    -0.279737869421E+04   -0.37873E+03   -0.35288E+02  6768   0.115E+01    0.133E+01
DAV:  13    -0.289742284208E+04   -0.10004E+03   -0.76300E+01  7344   0.491E+00    0.104E+01
DAV:  14    -0.292668680898E+04   -0.29264E+02   -0.10400E+01  6624   0.236E+00    0.844E+00
DAV:  15    -0.294069428459E+04   -0.14007E+02   -0.31306E+00  6912   0.134E+00    0.680E+00
DAV:  16    -0.294967705950E+04   -0.89828E+01   -0.19697E+00  6912   0.106E+00    0.542E+00
DAV:  17    -0.295675921542E+04   -0.70822E+01   -0.19724E+00  6624   0.996E-01    0.398E+00
DAV:  18    -0.296227177578E+04   -0.55126E+01   -0.12073E+00  6912   0.767E-01    0.264E+00
DAV:  19    -0.296478268990E+04   -0.25109E+01   -0.61284E-01  6912   0.566E-01    0.155E+00
DAV:  20    -0.296575632851E+04   -0.97364E+00   -0.13495E-01  6912   0.345E-01    0.102E+00
DAV:  21    -0.296860399135E+04   -0.28477E+01   -0.12632E-01  6912   0.337E-01    0.613E-01
DAV:  22    -0.297034042145E+04   -0.17364E+01   -0.44432E-02  7200   0.219E-01    0.390E-01
DAV:  23    -0.297146203806E+04   -0.11216E+01   -0.30786E-02  6768   0.174E-01    0.222E-01
DAV:  24    -0.297190202393E+04   -0.43999E+00   -0.99253E-03  7056   0.119E-01    0.123E-01
DAV:  25    -0.297205615222E+04   -0.15413E+00   -0.47043E-03  7056   0.818E-02    0.748E-02
DAV:  26    -0.297211651933E+04   -0.60367E-01   -0.18994E-03  7200   0.554E-02    0.428E-02
DAV:  27    -0.297213035454E+04   -0.13835E-01   -0.57266E-04  7200   0.290E-02    0.271E-02
DAV:  28    -0.297213641464E+04   -0.60601E-02   -0.18633E-04  7200   0.174E-02    0.186E-02
DAV:  29    -0.297214101651E+04   -0.46019E-02   -0.85024E-05  6480   0.113E-02    0.119E-02
DAV:  30    -0.297214237798E+04   -0.13615E-02   -0.35899E-05  6768   0.777E-03    0.882E-03
DAV:  31    -0.297214491063E+04   -0.25326E-02   -0.29030E-05  6192   0.651E-03    0.581E-03
DAV:  32    -0.297214624427E+04   -0.13336E-02   -0.10039E-05  5904   0.378E-03    0.417E-03
DAV:  33    -0.297214682082E+04   -0.57655E-03   -0.43154E-06  5760   0.284E-03    0.305E-03
DAV:  34    -0.297214705960E+04   -0.23878E-03   -0.16383E-06  5616   0.232E-03    0.264E-03
DAV:  35    -0.297214713030E+04   -0.70699E-04    0.15362E-06  5616   0.109E-03    0.244E-03
DAV:  36    -0.297214716424E+04   -0.33943E-04    0.22043E-06  5472   0.756E-04    0.236E-03
DAV:  37    -0.297214717783E+04   -0.13591E-04    0.25709E-06  5616   0.475E-04    0.232E-03
DAV:  38    -0.297214718622E+04   -0.83905E-05    0.26855E-06  5472   0.365E-04
   1 F= -.30069511E+04 E0= -.30069511E+04  d E =-.300695E+04  mag=    -0.0000
       N       E                     dE             d eps       ncg     rms          rms(c)
DAV:   1    -0.297214576209E+04    0.14157E-02   -0.14032E-01  5472   0.607E-02    0.112E-01
DAV:   2    -0.297214585979E+04   -0.97698E-04   -0.23967E-03  5760   0.674E-03    0.584E-02
DAV:   3    -0.297214580507E+04    0.54716E-04   -0.13560E-04  6048   0.229E-03    0.220E-02
DAV:   4    -0.297214579538E+04    0.96905E-05   -0.18514E-05  6048   0.117E-03
   2 F= -.30069498E+04 E0= -.30069498E+04  d E =0.127657E-02  mag=    -0.0000
       N       E                     dE             d eps       ncg     rms          rms(c)
DAV:   1    -0.297214694839E+04   -0.11433E-02   -0.27316E-01  5472   0.760E-02    0.121E-01
DAV:   2    -0.297214716032E+04   -0.21193E-03   -0.38724E-03  6048   0.842E-03    0.658E-02
DAV:   3    -0.297214711734E+04    0.42981E-04   -0.14390E-04  6048   0.250E-03    0.236E-02
DAV:   4    -0.297214711702E+04    0.31822E-06   -0.27512E-05  5472   0.124E-03
   3 F= -.30069510E+04 E0= -.30069510E+04  d E =-.120711E-02  mag=    -0.0000
       N       E                     dE             d eps       ncg     rms          rms(c)
DAV:   1    -0.297214703338E+04    0.83965E-04   -0.26724E-01  5472   0.839E-02    0.742E-02
DAV:   2    -0.297214716172E+04   -0.12834E-03   -0.19546E-03  5760   0.687E-03    0.459E-02
DAV:   3    -0.297214714956E+04    0.12155E-04   -0.47154E-05  5760   0.155E-03    0.156E-02
DAV:   4    -0.297214715579E+04   -0.62280E-05   -0.10180E-05  5760   0.752E-04
   4 F= -.30069511E+04 E0= -.30069511E+04  d E =-.355616E-04  mag=    -0.0000
       N       E                     dE             d eps       ncg     rms          rms(c)
DAV:   1    -0.297214693459E+04    0.21498E-03   -0.26614E-01  5472   0.854E-02    0.717E-02
DAV:   2    -0.297214715574E+04   -0.22115E-03   -0.28042E-03  5760   0.784E-03    0.476E-02
DAV:   3    -0.297214714008E+04    0.15661E-04   -0.33440E-05  6048   0.134E-03    0.207E-02
DAV:   4    -0.297214714735E+04   -0.72737E-05   -0.14447E-05  5760   0.932E-04
   5 F= -.30069511E+04 E0= -.30069511E+04  d E =0.506205E-05  mag=    -0.0000
       N       E                     dE             d eps       ncg     rms          rms(c)
DAV:   1    -0.297214593807E+04    0.12020E-02   -0.27274E-01  5472   0.835E-02    0.121E-01
DAV:   2    -0.297214609593E+04   -0.15785E-03   -0.35169E-03  6048   0.723E-03    0.657E-02
DAV:   3    -0.297214603777E+04    0.58161E-04   -0.14188E-04  6048   0.232E-03    0.223E-02
DAV:   4    -0.297214603045E+04    0.73171E-05   -0.24865E-05  6048   0.113E-03
   6 F= -.30069498E+04 E0= -.30069498E+04  d E =0.123115E-02  mag=    -0.0000
       N       E                     dE             d eps       ncg     rms          rms(c)
DAV:   1    -0.297214704140E+04   -0.10036E-02   -0.27363E-01  5472   0.740E-02    0.120E-01
DAV:   2    -0.297214723557E+04   -0.19417E-03   -0.36104E-03  5472   0.893E-03    0.647E-02
DAV:   3    -0.297214720126E+04    0.34303E-04   -0.15651E-04  6048   0.268E-03    0.221E-02
DAV:   4    -0.297214720188E+04   -0.61491E-06   -0.25180E-05  5760   0.116E-03
   7 F= -.30069511E+04 E0= -.30069511E+04  d E =-.128292E-02  mag=    -0.0000
       N       E                     dE             d eps       ncg     rms          rms(c)
DAV:   1    -0.297214699238E+04    0.20889E-03   -0.26653E-01  6336   0.864E-02    0.730E-02
DAV:   2    -0.297214721559E+04   -0.22321E-03   -0.28224E-03  5760   0.806E-03    0.476E-02
DAV:   3    -0.297214719836E+04    0.17224E-04   -0.34523E-05  6336   0.142E-03    0.208E-02
DAV:   4    -0.297214720377E+04   -0.54060E-05   -0.14631E-05  5760   0.105E-03
   8 F= -.30069511E+04 E0= -.30069511E+04  d E =-.254558E-05  mag=    -0.0000
       N       E                     dE             d eps       ncg     rms          rms(c)
DAV:   1    -0.297214698903E+04    0.20933E-03   -0.26754E-01  6336   0.750E-02    0.738E-02
DAV:   2    -0.297214708764E+04   -0.98605E-04   -0.16637E-03  5760   0.542E-03    0.439E-02
DAV:   3    -0.297214707781E+04    0.98286E-05   -0.46421E-05  6048   0.147E-03
   9 F= -.30069510E+04 E0= -.30069510E+04  d E =0.128175E-03  mag=    -0.0000
       N       E                     dE             d eps       ncg     rms          rms(c)
DAV:   1    -0.297214565748E+04    0.14302E-02   -0.27533E-01  6336   0.785E-02    0.124E-01
DAV:   2    -0.297214577770E+04   -0.12023E-03   -0.31780E-03  6048   0.769E-03    0.654E-02
DAV:   3    -0.297214572357E+04    0.54134E-04   -0.15935E-04  6048   0.343E-03    0.221E-02
DAV:   4    -0.297214572025E+04    0.33180E-05   -0.23674E-05  5760   0.175E-03
  10 F= -.30069497E+04 E0= -.30069497E+04  d E =0.126985E-02  mag=    -0.0000
       N       E                     dE             d eps       ncg     rms          rms(c)
DAV:   1    -0.297214589012E+04   -0.16655E-03   -0.27918E-01  6336   0.908E-02    0.161E-01
DAV:   2    -0.297214612444E+04   -0.23432E-03   -0.53985E-03  5760   0.129E-02    0.810E-02
DAV:   3    -0.297214601247E+04    0.11197E-03   -0.24836E-04  6048   0.403E-03    0.338E-02
DAV:   4    -0.297214599872E+04    0.13743E-04   -0.51055E-05  6048   0.207E-03    0.179E-02
DAV:   5    -0.297214599825E+04    0.47451E-06   -0.11151E-06  6048   0.739E-04
  11 F= -.30069498E+04 E0= -.30069498E+04  d E =-.805182E-04  mag=    -0.0000
       N       E                     dE             d eps       ncg     rms          rms(c)
DAV:   1    -0.297214687379E+04   -0.87507E-03   -0.27347E-01  5760   0.751E-02    0.122E-01
DAV:   2    -0.297214709749E+04   -0.22370E-03   -0.38803E-03  5760   0.904E-03    0.659E-02
DAV:   3    -0.297214705751E+04    0.39978E-04   -0.14509E-04  6048   0.254E-03    0.247E-02
DAV:   4    -0.297214705714E+04    0.37672E-06   -0.26572E-05  5760   0.134E-03
  12 F= -.30069510E+04 E0= -.30069510E+04  d E =-.117305E-02  mag=    -0.0000
       N       E                     dE             d eps       ncg     rms          rms(c)
DAV:   1    -0.297214695144E+04    0.10607E-03   -0.26744E-01  5472   0.835E-02    0.746E-02
DAV:   2    -0.297214707049E+04   -0.11905E-03   -0.18568E-03  5760   0.681E-03    0.449E-02
DAV:   3    -0.297214706005E+04    0.10443E-04   -0.46360E-05  6048   0.153E-03    0.132E-02
DAV:   4    -0.297214706543E+04   -0.53798E-05   -0.95847E-06  6048   0.756E-04
  13 F= -.30069510E+04 E0= -.30069510E+04  d E =-.533327E-05  mag=    -0.0000
       N       E                     dE             d eps       ncg     rms          rms(c)
DAV:   1    -0.297214699720E+04    0.62857E-04   -0.26646E-01  5472   0.861E-02    0.710E-02
DAV:   2    -0.297214720048E+04   -0.20328E-03   -0.26320E-03  5760   0.780E-03    0.470E-02
DAV:   3    -0.297214718618E+04    0.14298E-04   -0.36965E-05  6048   0.144E-03    0.182E-02
DAV:   4    -0.297214719203E+04   -0.58529E-05   -0.12747E-05  5760   0.879E-04
  14 F= -.30069511E+04 E0= -.30069511E+04  d E =-.129411E-03  mag=    -0.0000
       N       E                     dE             d eps       ncg     rms          rms(c)
DAV:   1    -0.297214556337E+04    0.16228E-02   -0.27372E-01  5472   0.854E-02    0.123E-01
DAV:   2    -0.297214572166E+04   -0.15829E-03   -0.35090E-03  5760   0.747E-03    0.668E-02
DAV:   3    -0.297214566788E+04    0.53787E-04   -0.15865E-04  6192   0.248E-03    0.235E-02
DAV:   4    -0.297214566094E+04    0.69406E-05   -0.24794E-05  5904   0.123E-03
  15 F= -.30069497E+04 E0= -.30069497E+04  d E =0.141667E-02  mag=    -0.0000
       N       E                     dE             d eps       ncg     rms          rms(c)
DAV:   1    -0.297214696924E+04   -0.13014E-02   -0.27309E-01  5472   0.775E-02    0.121E-01
DAV:   2    -0.297214717234E+04   -0.20311E-03   -0.37978E-03  5760   0.850E-03    0.655E-02
DAV:   3    -0.297214713411E+04    0.38234E-04   -0.14353E-04  6048   0.260E-03    0.230E-02
DAV:   4    -0.297214713410E+04    0.57044E-08   -0.27063E-05  5760   0.123E-03
  16 F= -.30069511E+04 E0= -.30069511E+04  d E =-.135502E-02  mag=    -0.0000
       N       E                     dE             d eps       ncg     rms          rms(c)
DAV:   1    -0.297214697851E+04    0.15561E-03   -0.26647E-01  5472   0.870E-02    0.725E-02
DAV:   2    -0.297214719360E+04   -0.21510E-03   -0.27453E-03  5760   0.813E-03    0.477E-02
DAV:   3    -0.297214717750E+04    0.16103E-04   -0.37544E-05  6048   0.144E-03    0.200E-02
DAV:   4    -0.297214718323E+04   -0.57283E-05   -0.13923E-05  5760   0.936E-04
  17 F= -.30069511E+04 E0= -.30069511E+04  d E =-.529558E-04  mag=    -0.0000
       N       E                     dE             d eps       ncg     rms          rms(c)
DAV:   1    -0.297214699032E+04    0.18718E-03   -0.26729E-01  5760   0.750E-02    0.738E-02
DAV:   2    -0.297214707679E+04   -0.86471E-04   -0.15520E-03  5760   0.558E-03    0.441E-02
DAV:   3    -0.297214707041E+04    0.63804E-05   -0.49156E-05  6048   0.140E-03
  18 F= -.30069510E+04 E0= -.30069510E+04  d E =0.112866E-03  mag=    -0.0000
       N       E                     dE             d eps       ncg     rms          rms(c)
DAV:   1    -0.297214608405E+04    0.99274E-03   -0.27384E-01  6048   0.785E-02    0.124E-01
DAV:   2    -0.297214621265E+04   -0.12860E-03   -0.32683E-03  5760   0.731E-03    0.650E-02
DAV:   3    -0.297214615227E+04    0.60378E-04   -0.14696E-04  6336   0.306E-03    0.218E-02
DAV:   4    -0.297214614583E+04    0.64423E-05   -0.23528E-05  5760   0.153E-03
  19 F= -.30069500E+04 E0= -.30069500E+04  d E =0.103934E-02  mag=    -0.0000
       N       E                     dE             d eps       ncg     rms          rms(c)
DAV:   1    -0.297214679088E+04   -0.63861E-03   -0.21286E-01  5760   0.635E-02    0.129E-01
DAV:   2    -0.297214676550E+04    0.25380E-04   -0.36232E-03  5760   0.109E-02    0.650E-02
DAV:   3    -0.297214670250E+04    0.62995E-04   -0.28823E-04  6048   0.402E-03    0.284E-02
DAV:   4    -0.297214668763E+04    0.14870E-04   -0.42309E-05  6336   0.200E-03    0.121E-02
DAV:   5    -0.297214668278E+04    0.48558E-05   -0.42910E-06  5760   0.859E-04
  20 F= -.30069506E+04 E0= -.30069506E+04  d E =-.650744E-03  mag=    -0.0000
       N       E                     dE             d eps       ncg     rms          rms(c)
DAV:   1    -0.297214711623E+04   -0.42859E-03   -0.14676E-01  5184   0.287E-02    0.964E-02
DAV:   2    -0.297214674089E+04    0.37534E-03   -0.16403E-03  5760   0.832E-03    0.448E-02
DAV:   3    -0.297214670576E+04    0.35127E-04   -0.38381E-04  6048   0.362E-03    0.259E-02
DAV:   4    -0.297214669151E+04    0.14244E-04   -0.41225E-05  6048   0.154E-03    0.130E-02
DAV:   5    -0.297214668043E+04    0.11088E-04   -0.16004E-05  5760   0.878E-04    0.426E-03
DAV:   6    -0.297214668088E+04   -0.44948E-06    0.94236E-07  5472   0.392E-04
  21 F= -.30069506E+04 E0= -.30069506E+04  d E =0.252432E-05  mag=    -0.0000
       N       E                     dE             d eps       ncg     rms          rms(c)
DAV:   1    -0.297214708669E+04   -0.40627E-03   -0.14674E-01  5184   0.293E-02    0.966E-02
DAV:   2    -0.297214670827E+04    0.37842E-03   -0.16495E-03  5760   0.968E-03    0.447E-02
DAV:   3    -0.297214667545E+04    0.32822E-04   -0.36067E-04  5760   0.403E-03    0.255E-02
DAV:   4    -0.297214666196E+04    0.13488E-04   -0.44262E-05  6048   0.179E-03    0.117E-02
DAV:   5    -0.297214665214E+04    0.98174E-05   -0.14942E-05  5760   0.109E-03
  22 F= -.30069506E+04 E0= -.30069506E+04  d E =0.472955E-04  mag=    -0.0000
       N       E                     dE             d eps       ncg     rms          rms(c)
DAV:   1    -0.297214721805E+04   -0.55609E-03   -0.11958E-01  5472   0.408E-02    0.840E-02
DAV:   2    -0.297214704927E+04    0.16878E-03   -0.11379E-03  5760   0.751E-03    0.423E-02
DAV:   3    -0.297214703870E+04    0.10566E-04   -0.16352E-04  6336   0.294E-03    0.203E-02
DAV:   4    -0.297214703478E+04    0.39223E-05   -0.21067E-05  6048   0.134E-03
  23 F= -.30069510E+04 E0= -.30069510E+04  d E =-.402734E-03  mag=    -0.0000
       N       E                     dE             d eps       ncg     rms          rms(c)
DAV:   1    -0.297214704540E+04   -0.66995E-05   -0.92284E-02  5184   0.415E-02    0.678E-02
DAV:   2    -0.297214706135E+04   -0.15947E-04   -0.44607E-04  5760   0.338E-03    0.397E-02
DAV:   3    -0.297214707618E+04   -0.14826E-04   -0.12587E-05  6048   0.861E-04    0.765E-03
DAV:   4    -0.297214707738E+04   -0.12015E-05    0.93049E-07  6048   0.309E-04
  24 F= -.30069510E+04 E0= -.30069510E+04  d E =-.425846E-04  mag=    -0.0000
       N       E                     dE             d eps       ncg     rms          rms(c)
DAV:   1    -0.297214605399E+04    0.10222E-02   -0.10930E-01  5760   0.470E-02    0.117E-01
DAV:   2    -0.297214597987E+04    0.74120E-04   -0.10101E-03  5760   0.594E-03    0.103E-01
DAV:   3    -0.297214592799E+04    0.51888E-04   -0.45041E-05  6336   0.193E-03    0.570E-02
DAV:   4    -0.297214589148E+04    0.36508E-04   -0.65637E-05  5760   0.288E-03    0.137E-02
DAV:   5    -0.297214589211E+04   -0.63371E-06   -0.48429E-06  6336   0.949E-04
  25 F= -.30069497E+04 E0= -.30069497E+04  d E =0.131649E-02  mag=    -0.0000
       N       E                     dE             d eps       ncg     rms          rms(c)
DAV:   1    -0.297214705265E+04   -0.11612E-02   -0.10858E-01  5760   0.500E-02    0.114E-01
DAV:   2    -0.297214707596E+04   -0.23303E-04   -0.14900E-03  5760   0.804E-03    0.108E-01
DAV:   3    -0.297214704648E+04    0.29479E-04   -0.35233E-05  6336   0.171E-03    0.750E-02
DAV:   4    -0.297214703314E+04    0.13333E-04   -0.14447E-04  5760   0.385E-03    0.178E-02
DAV:   5    -0.297214702959E+04    0.35582E-05   -0.11365E-05  6480   0.121E-03
  26 F= -.30069510E+04 E0= -.30069510E+04  d E =-.126869E-02  mag=    -0.0000
       N       E                     dE             d eps       ncg     rms          rms(c)
DAV:   1    -0.297214595843E+04    0.10747E-02   -0.10900E-01  5472   0.502E-02    0.114E-01
DAV:   2    -0.297214592117E+04    0.37263E-04   -0.13411E-03  5760   0.591E-03    0.104E-01
DAV:   3    -0.297214587091E+04    0.50262E-04   -0.34298E-05  6336   0.131E-03    0.660E-02
DAV:   4    -0.297214583662E+04    0.34292E-04   -0.10013E-04  5760   0.230E-03    0.146E-02
DAV:   5    -0.297214583677E+04   -0.15349E-06   -0.81641E-06  6624   0.858E-04
  27 F= -.30069496E+04 E0= -.30069496E+04  d E =0.132264E-02  mag=    -0.0000
       N       E                     dE             d eps       ncg     rms          rms(c)
DAV:   1    -0.297214716908E+04   -0.13325E-02   -0.10900E-01  5472   0.448E-02    0.117E-01
DAV:   2    -0.297214713449E+04    0.34595E-04   -0.10671E-03  5760   0.614E-03    0.103E-01
DAV:   3    -0.297214710388E+04    0.30611E-04   -0.40418E-05  6048   0.151E-03    0.595E-02
DAV:   4    -0.297214710248E+04    0.13977E-05   -0.72746E-05  5760   0.220E-03
  28 F= -.30069510E+04 E0= -.30069510E+04  d E =-.139124E-02  mag=    -0.0000
       N       E                     dE             d eps       ncg     rms          rms(c)
DAV:   1    -0.297214581098E+04    0.12929E-02   -0.10803E-01  5472   0.514E-02    0.111E-01
DAV:   2    -0.297214583722E+04   -0.26236E-04   -0.17951E-03  5760   0.738E-03    0.112E-01
DAV:   3    -0.297214579511E+04    0.42102E-04   -0.32438E-05  6336   0.127E-03    0.838E-02
DAV:   4    -0.297214574224E+04    0.52878E-04   -0.18683E-04  5760   0.306E-03    0.199E-02
DAV:   5    -0.297214573957E+04    0.26666E-05   -0.15537E-05  6624   0.112E-03
  29 F= -.30069498E+04 E0= -.30069498E+04  d E =0.122903E-02  mag=    -0.0000
       N       E                     dE             d eps       ncg     rms          rms(c)
DAV:   1    -0.297214715695E+04   -0.14147E-02   -0.10872E-01  5184   0.421E-02    0.116E-01
DAV:   2    -0.297214712783E+04    0.29124E-04   -0.10334E-03  5472   0.613E-03    0.102E-01
DAV:   3    -0.297214709934E+04    0.28486E-04   -0.38088E-05  6048   0.146E-03    0.599E-02
DAV:   4    -0.297214708748E+04    0.11863E-04   -0.71613E-05  5472   0.211E-03    0.144E-02
DAV:   5    -0.297214708641E+04    0.10740E-05   -0.52443E-06  6624   0.817E-04
  30 F= -.30069510E+04 E0= -.30069510E+04  d E =-.121695E-02  mag=    -0.0000
       N       E                     dE             d eps       ncg     rms          rms(c)
DAV:   1    -0.297214708951E+04   -0.20246E-05   -0.92342E-02  5472   0.443E-02    0.681E-02
DAV:   2    -0.297214709900E+04   -0.94915E-05   -0.36222E-04  5760   0.336E-03    0.396E-02
DAV:   3    -0.297214711254E+04   -0.13538E-04   -0.12063E-05  6048   0.102E-03    0.722E-03
DAV:   4    -0.297214711391E+04   -0.13711E-05    0.99776E-07  5760   0.334E-04
  31 F= -.30069510E+04 E0= -.30069510E+04  d E =-.227935E-04  mag=    -0.0000
       N       E                     dE             d eps       ncg     rms          rms(c)
DAV:   1    -0.297214595875E+04    0.11538E-02   -0.10862E-01  5472   0.509E-02    0.112E-01
DAV:   2    -0.297214595325E+04    0.54950E-05   -0.15262E-03  5760   0.679E-03    0.108E-01
DAV:   3    -0.297214591140E+04    0.41855E-04   -0.36768E-05  6336   0.128E-03    0.767E-02
DAV:   4    -0.297214586643E+04    0.44968E-04   -0.13738E-04  5760   0.270E-03    0.182E-02
DAV:   5    -0.297214586312E+04    0.33135E-05   -0.10299E-05  6624   0.967E-04
  32 F= -.30069497E+04 E0= -.30069497E+04  d E =0.137553E-02  mag=    -0.0000
       N       E                     dE             d eps       ncg     rms          rms(c)
DAV:   1    -0.297214712470E+04   -0.12583E-02   -0.10887E-01  5472   0.447E-02    0.115E-01
DAV:   2    -0.297214709257E+04    0.32135E-04   -0.10915E-03  5760   0.628E-03    0.103E-01
DAV:   3    -0.297214706091E+04    0.31659E-04   -0.37402E-05  6048   0.146E-03    0.628E-02
DAV:   4    -0.297214704981E+04    0.11097E-04   -0.79438E-05  5760   0.223E-03    0.143E-02
DAV:   5    -0.297214704850E+04    0.13106E-05   -0.60318E-06  6336   0.866E-04
  33 F= -.30069510E+04 E0= -.30069510E+04  d E =-.131506E-02  mag=    -0.0000
       N       E                     dE             d eps       ncg     rms          rms(c)
DAV:   1    -0.297214705968E+04   -0.98653E-05   -0.92368E-02  5472   0.460E-02    0.680E-02
DAV:   2    -0.297214706996E+04   -0.10288E-04   -0.34726E-04  5760   0.333E-03    0.394E-02
DAV:   3    -0.297214708220E+04   -0.12239E-04   -0.12057E-05  6048   0.101E-03    0.733E-03
DAV:   4    -0.297214708374E+04   -0.15374E-05    0.94396E-07  5760   0.344E-04
  34 F= -.30069510E+04 E0= -.30069510E+04  d E =-.309597E-04  mag=    -0.0000
       N       E                     dE             d eps       ncg     rms          rms(c)
DAV:   1    -0.297214699391E+04    0.88292E-04   -0.92225E-02  5472   0.471E-02    0.677E-02
DAV:   2    -0.297214701475E+04   -0.20839E-04   -0.44654E-04  6048   0.378E-03    0.399E-02
DAV:   3    -0.297214702833E+04   -0.13584E-04   -0.11780E-05  5760   0.102E-03    0.749E-03
DAV:   4    -0.297214702919E+04   -0.86165E-06    0.92333E-07  6048   0.349E-04
  35 F= -.30069510E+04 E0= -.30069510E+04  d E =0.503103E-04  mag=    -0.0000
       N       E                     dE             d eps       ncg     rms          rms(c)
DAV:   1    -0.297214590599E+04    0.11223E-02   -0.10859E-01  4896   0.491E-02    0.115E-01
DAV:   2    -0.297214584202E+04    0.63974E-04   -0.11486E-03  5760   0.538E-03    0.104E-01
DAV:   3    -0.297214579276E+04    0.49253E-04   -0.37822E-05  6048   0.131E-03    0.651E-02
DAV:   4    -0.297214576185E+04    0.30918E-04   -0.78919E-05  5760   0.211E-03    0.133E-02
DAV:   5    -0.297214576355E+04   -0.16995E-05   -0.58281E-06  6336   0.803E-04
  36 F= -.30069498E+04 E0= -.30069498E+04  d E =0.113612E-02  mag=    -0.0000
       N       E                     dE             d eps       ncg     rms          rms(c)
DAV:   1    -0.297214718319E+04   -0.14213E-02   -0.10888E-01  5472   0.425E-02    0.117E-01
DAV:   2    -0.297214714688E+04    0.36307E-04   -0.10325E-03  5760   0.611E-03    0.102E-01
DAV:   3    -0.297214711588E+04    0.31001E-04   -0.39386E-05  6048   0.150E-03    0.580E-02
DAV:   4    -0.297214711055E+04    0.53288E-05   -0.67545E-05  5472   0.215E-03
  37 F= -.30069510E+04 E0= -.30069510E+04  d E =-.121197E-02  mag=    -0.0000
       N       E                     dE             d eps       ncg     rms          rms(c)
DAV:   1    -0.297214704865E+04    0.67233E-04   -0.92092E-02  5472   0.472E-02    0.677E-02
DAV:   2    -0.297214707374E+04   -0.25088E-04   -0.51042E-04  6048   0.412E-03    0.400E-02
DAV:   3    -0.297214708642E+04   -0.12681E-04   -0.13390E-05  6048   0.108E-03    0.801E-03
DAV:   4    -0.297214708787E+04   -0.14499E-05    0.76370E-07  6048   0.403E-04
  38 F= -.30069510E+04 E0= -.30069510E+04  d E =0.183536E-04  mag=    -0.0000
       N       E                     dE             d eps       ncg     rms          rms(c)
DAV:   1    -0.297214702434E+04    0.62075E-04   -0.92296E-02  5760   0.414E-02    0.683E-02
DAV:   2    -0.297214702930E+04   -0.49521E-05   -0.31283E-04  5760   0.267E-03    0.391E-02
DAV:   3    -0.297214704520E+04   -0.15905E-04   -0.11191E-05  6048   0.867E-04    0.698E-03
DAV:   4    -0.297214704631E+04   -0.11118E-05    0.11412E-06  5760   0.301E-04
  39 F= -.30069510E+04 E0= -.30069510E+04  d E =0.426149E-04  mag=    -0.0000
       N       E                     dE             d eps       ncg     rms          rms(c)
DAV:   1    -0.297214586877E+04    0.11764E-02   -0.10880E-01  5472   0.461E-02    0.120E-01
DAV:   2    -0.297214576693E+04    0.10184E-03   -0.73188E-04  5760   0.599E-03    0.979E-02
DAV:   3    -0.297214571681E+04    0.50122E-04   -0.69464E-05  5760   0.291E-03    0.379E-02
DAV:   4    -0.297214570164E+04    0.15170E-04   -0.34596E-05  5760   0.262E-03    0.133E-02
DAV:   5    -0.297214570274E+04   -0.11009E-05   -0.24893E-06  5760   0.940E-04
  40 F= -.30069497E+04 E0= -.30069497E+04  d E =0.123051E-02  mag=    -0.0000
