       N       E                     dE             d eps       ncg     rms          rms(c)
DAV:   1     0.195596381412E+05    0.19560E+05   -0.83093E+05  6336   0.105E+03
DAV:   2     0.101379223434E+03   -0.19458E+05   -0.18653E+05  8448   0.273E+02
DAV:   3    -0.316887399849E+04   -0.32703E+04   -0.32498E+04  7488   0.119E+02
DAV:   4    -0.325717981696E+04   -0.88306E+02   -0.87963E+02  7776   0.224E+01
DAV:   5    -0.325899969453E+04   -0.18199E+01   -0.18170E+01  7968   0.299E+00    0.204E+02
DAV:   6    -0.162820096863E+04    0.16308E+04   -0.31817E+03  7296   0.427E+01    0.922E+01
DAV:   7    -0.176220294076E+04   -0.13400E+03   -0.39674E+02  7776   0.144E+01    0.659E+01
DAV:   8    -0.176692416564E+04   -0.47212E+01   -0.83115E+01  7872   0.628E+00    0.472E+01
DAV:   9    -0.189038015218E+04   -0.12346E+03   -0.92374E+01  7968   0.635E+00    0.405E+01
DAV:  10    -0.203131575500E+04   -0.14094E+03   -0.60633E+01  7968   0.553E+00    0.339E+01
DAV:  11    -0.220968298809E+04   -0.17837E+03   -0.64333E+01  7776   0.546E+00    0.303E+01
DAV:  12    -0.237006751195E+04   -0.16038E+03   -0.54355E+01  7872   0.527E+00    0.258E+01
DAV:  13    -0.266277405373E+04   -0.29271E+03   -0.16694E+02  7104   0.877E+00    0.195E+01
DAV:  14    -0.291024650538E+04   -0.24747E+03   -0.20078E+02  7488   0.849E+00    0.151E+01
DAV:  15    -0.298657350653E+04   -0.76327E+02   -0.51173E+01  7680   0.424E+00    0.118E+01
DAV:  16    -0.302394143924E+04   -0.37368E+02   -0.17032E+01  7392   0.257E+00    0.968E+00
DAV:  17    -0.304365391054E+04   -0.19712E+02   -0.66380E+00  7584   0.166E+00    0.812E+00
DAV:  18    -0.305405031996E+04   -0.10396E+02   -0.28315E+00  7488   0.111E+00    0.675E+00
DAV:  19    -0.306209338831E+04   -0.80431E+01   -0.22819E+00  7200   0.100E+00    0.556E+00
DAV:  20    -0.306804343244E+04   -0.59500E+01   -0.17586E+00  7296   0.881E-01    0.461E+00
DAV:  21    -0.307154170197E+04   -0.34983E+01   -0.11386E+00  7200   0.703E-01    0.351E+00
DAV:  22    -0.307488587090E+04   -0.33442E+01   -0.90335E-01  6912   0.573E-01    0.242E+00
DAV:  23    -0.307659008820E+04   -0.17042E+01   -0.45136E-01  7296   0.410E-01    0.174E+00
DAV:  24    -0.307756578638E+04   -0.97570E+00   -0.20425E-01  7296   0.291E-01    0.111E+00
DAV:  25    -0.307910125503E+04   -0.15355E+01   -0.90781E-02  7200   0.234E-01    0.658E-01
DAV:  26    -0.308063375348E+04   -0.15325E+01   -0.45790E-02  7200   0.166E-01    0.444E-01
DAV:  27    -0.308153444276E+04   -0.90069E+00   -0.19884E-02  7392   0.115E-01    0.347E-01
DAV:  28    -0.308227566650E+04   -0.74122E+00   -0.16957E-02  7200   0.105E-01    0.212E-01
DAV:  29    -0.308262474780E+04   -0.34908E+00   -0.73799E-03  7488   0.726E-02    0.125E-01
DAV:  30    -0.308276611813E+04   -0.14137E+00   -0.24953E-03  7488   0.409E-02    0.914E-02
DAV:  31    -0.308282093255E+04   -0.54814E-01   -0.76611E-04  7488   0.229E-02    0.576E-02
DAV:  32    -0.308285254798E+04   -0.31615E-01   -0.50901E-04  7488   0.178E-02    0.358E-02
DAV:  33    -0.308286868700E+04   -0.16139E-01   -0.28791E-04  7584   0.134E-02    0.215E-02
DAV:  34    -0.308287590693E+04   -0.72199E-02   -0.76196E-05  7392   0.690E-03    0.167E-02
DAV:  35    -0.308288121185E+04   -0.53049E-02   -0.40464E-05  6528   0.470E-03    0.112E-02
DAV:  36    -0.308288425326E+04   -0.30414E-02   -0.23011E-05  6816   0.354E-03    0.837E-03
DAV:  37    -0.308288577952E+04   -0.15263E-02   -0.59349E-06  6048   0.224E-03    0.576E-03
DAV:  38    -0.308288717495E+04   -0.13954E-02   -0.62350E-06  6240   0.218E-03    0.399E-03
DAV:  39    -0.308288772475E+04   -0.54980E-03   -0.50569E-07  5568   0.140E-03    0.319E-03
DAV:  40    -0.308288799026E+04   -0.26551E-03    0.71494E-07  5664   0.112E-03    0.253E-03
DAV:  41    -0.308288809290E+04   -0.10264E-03    0.16355E-06  5472   0.798E-04    0.240E-03
DAV:  42    -0.308288812568E+04   -0.32779E-04    0.22648E-06  5376   0.443E-04    0.230E-03
DAV:  43    -0.308288814234E+04   -0.16662E-04    0.23976E-06  5280   0.333E-04    0.224E-03
DAV:  44    -0.308288815225E+04   -0.99032E-05    0.24970E-06  5376   0.267E-04
   1 F= -.31243151E+04 E0= -.31243151E+04  d E =-.312432E+04  mag=    -0.0000
       N       E                     dE             d eps       ncg     rms          rms(c)
DAV:   1    -0.308288766105E+04    0.48130E-03   -0.69396E-02  6624   0.100E-01    0.789E-02
DAV:   2    -0.308288765436E+04    0.66896E-05   -0.37366E-04  6528   0.957E-03    0.577E-02
DAV:   3    -0.308288764312E+04    0.11236E-04   -0.12484E-04  6912   0.538E-03    0.317E-02
DAV:   4    -0.308288763908E+04    0.40451E-05   -0.12909E-04  7104   0.532E-03    0.300E-02
DAV:   5    -0.308288763077E+04    0.83019E-05   -0.62903E-05  6912   0.347E-03
   2 F= -.31243149E+04 E0= -.31243149E+04  d E =0.247890E-03  mag=    -0.0000
       N       E                     dE             d eps       ncg     rms          rms(c)
DAV:   1    -0.308288837654E+04   -0.73746E-03   -0.13990E-01  6144   0.143E-01    0.109E-01
DAV:   2    -0.308288835943E+04    0.17105E-04   -0.69261E-04  6720   0.124E-02    0.781E-02
DAV:   3    -0.308288834195E+04    0.17480E-04   -0.25014E-04  6720   0.730E-03    0.438E-02
DAV:   4    -0.308288832983E+04    0.12123E-04   -0.26875E-04  7008   0.783E-03    0.423E-02
DAV:   5    -0.308288831171E+04    0.18116E-04   -0.10111E-04  7104   0.446E-03    0.148E-02
DAV:   6    -0.308288830940E+04    0.23089E-05   -0.78659E-06  5952   0.151E-03
   3 F= -.31243149E+04 E0= -.31243149E+04  d E =-.753993E-04  mag=    -0.0000
       N       E                     dE             d eps       ncg     rms          rms(c)
DAV:   1    -0.308288810853E+04    0.20318E-03   -0.14241E-01  6144   0.143E-01    0.114E-01
DAV:   2    -0.308288809490E+04    0.13639E-04   -0.12328E-03  6528   0.162E-02    0.104E-01
DAV:   3    -0.308288802520E+04    0.69697E-04   -0.49859E-04  6912   0.104E-02    0.489E-02
DAV:   4    -0.308288801049E+04    0.14713E-04   -0.24899E-04  7104   0.718E-03    0.426E-02
DAV:   5    -0.308288799463E+04    0.15858E-04   -0.14367E-04  7104   0.514E-03    0.239E-02
DAV:   6    -0.308288798667E+04    0.79625E-05   -0.29768E-05  6720   0.273E-03
   4 F= -.31243148E+04 E0= -.31243148E+04  d E =0.977303E-04  mag=    -0.0000
       N       E                     dE             d eps       ncg     rms          rms(c)
DAV:   1    -0.308288829461E+04   -0.29998E-03   -0.14356E-01  6144   0.146E-01    0.119E-01
DAV:   2    -0.308288827376E+04    0.20854E-04   -0.96102E-04  6528   0.144E-02    0.848E-02
DAV:   3    -0.308288824705E+04    0.26709E-04   -0.33063E-04  6912   0.863E-03    0.497E-02
DAV:   4    -0.308288823206E+04    0.14988E-04   -0.30041E-04  6720   0.792E-03    0.465E-02
DAV:   5    -0.308288821251E+04    0.19554E-04   -0.15581E-04  6624   0.520E-03    0.223E-02
DAV:   6    -0.308288820517E+04    0.73322E-05   -0.30969E-05  6432   0.269E-03
   5 F= -.31243148E+04 E0= -.31243148E+04  d E =-.657811E-05  mag=    -0.0000
       N       E                     dE             d eps       ncg     rms          rms(c)
DAV:   1    -0.308288835660E+04   -0.14409E-03   -0.14501E-01  6144   0.139E-01    0.112E-01
DAV:   2    -0.308288834986E+04    0.67339E-05   -0.10934E-03  6528   0.157E-02    0.859E-02
DAV:   3    -0.308288830615E+04    0.43711E-04   -0.52748E-04  6720   0.103E-02    0.495E-02
DAV:   4    -0.308288828116E+04    0.24988E-04   -0.27080E-04  6720   0.702E-03    0.378E-02
DAV:   5    -0.308288826982E+04    0.11343E-04   -0.10134E-04  6720   0.451E-03    0.237E-02
DAV:   6    -0.308288826222E+04    0.76040E-05   -0.26202E-05  6912   0.271E-03
   6 F= -.31243149E+04 E0= -.31243149E+04  d E =-.439152E-04  mag=    -0.0000
       N       E                     dE             d eps       ncg     rms          rms(c)
DAV:   1    -0.308288799190E+04    0.27792E-03   -0.13937E-01  6144   0.138E-01    0.108E-01
DAV:   2    -0.308288799246E+04   -0.56677E-06   -0.70027E-04  6528   0.132E-02    0.763E-02
DAV:   3    -0.308288798188E+04    0.10585E-04   -0.31364E-04  6720   0.811E-03    0.532E-02
DAV:   4    -0.308288796742E+04    0.14460E-04   -0.26750E-04  6912   0.714E-03    0.354E-02
DAV:   5    -0.308288795425E+04    0.13173E-04   -0.10108E-04  6912   0.449E-03    0.195E-02
DAV:   6    -0.308288795010E+04    0.41453E-05   -0.15112E-05  6912   0.212E-03
   7 F= -.31243148E+04 E0= -.31243148E+04  d E =0.884984E-04  mag=    -0.0000
       N       E                     dE             d eps       ncg     rms          rms(c)
DAV:   1    -0.308288802160E+04   -0.67353E-04   -0.13933E-01  6144   0.145E-01    0.121E-01
DAV:   2    -0.308288799654E+04    0.25061E-04   -0.67594E-04  6336   0.124E-02    0.667E-02
DAV:   3    -0.308288797294E+04    0.23602E-04   -0.58058E-05  6720   0.370E-03    0.402E-02
DAV:   4    -0.308288798661E+04   -0.13669E-04   -0.16023E-04  6912   0.594E-03    0.428E-02
DAV:   5    -0.308288795833E+04    0.28279E-04   -0.11390E-04  6912   0.482E-03    0.125E-02
DAV:   6    -0.308288795723E+04    0.10979E-05   -0.44475E-06  5568   0.121E-03
   8 F= -.31243148E+04 E0= -.31243148E+04  d E =-.200375E-04  mag=    -0.0000
       N       E                     dE             d eps       ncg     rms          rms(c)
DAV:   1    -0.308288831786E+04   -0.35953E-03   -0.13995E-01  6048   0.145E-01    0.125E-01
DAV:   2    -0.308288825573E+04    0.62133E-04   -0.72979E-04  6336   0.131E-02    0.765E-02
DAV:   3    -0.308288822373E+04    0.31994E-04   -0.65993E-05  6720   0.396E-03    0.434E-02
DAV:   4    -0.308288823349E+04   -0.97567E-05   -0.19745E-04  6336   0.650E-03    0.418E-02
DAV:   5    -0.308288820435E+04    0.29140E-04   -0.12131E-04  7296   0.486E-03    0.139E-02
DAV:   6    -0.308288820405E+04    0.30111E-06   -0.24957E-06  5568   0.108E-03
   9 F= -.31243146E+04 E0= -.31243146E+04  d E =0.178953E-03  mag=    -0.0000
       N       E                     dE             d eps       ncg     rms          rms(c)
DAV:   1    -0.308288807772E+04    0.12663E-03   -0.14219E-01  6144   0.146E-01    0.130E-01
DAV:   2    -0.308288798637E+04    0.91343E-04   -0.80036E-04  6336   0.138E-02    0.828E-02
DAV:   3    -0.308288794688E+04    0.39489E-04   -0.84427E-05  6720   0.444E-03    0.464E-02
DAV:   4    -0.308288795157E+04   -0.46907E-05   -0.21979E-04  6720   0.726E-03    0.439E-02
DAV:   5    -0.308288792118E+04    0.30398E-04   -0.12523E-04  6912   0.511E-03    0.144E-02
DAV:   6    -0.308288792093E+04    0.24255E-06   -0.35623E-06  5760   0.124E-03
  10 F= -.31243147E+04 E0= -.31243147E+04  d E =-.722930E-04  mag=    -0.0000
       N       E                     dE             d eps       ncg     rms          rms(c)
DAV:   1    -0.308288819574E+04   -0.27456E-03   -0.94261E-02  6144   0.118E-01    0.959E-02
DAV:   2    -0.308288821361E+04   -0.17872E-04   -0.71180E-04  6528   0.147E-02    0.749E-02
DAV:   3    -0.308288819989E+04    0.13725E-04   -0.65873E-05  6720   0.449E-03    0.414E-02
DAV:   4    -0.308288821210E+04   -0.12216E-04   -0.12869E-04  6912   0.606E-03    0.463E-02
DAV:   5    -0.308288818765E+04    0.24448E-04   -0.77419E-05  6720   0.444E-03    0.104E-02
DAV:   6    -0.308288818715E+04    0.50850E-06   -0.56419E-06  5760   0.134E-03
  11 F= -.31243150E+04 E0= -.31243150E+04  d E =-.305000E-03  mag=    -0.0000
       N       E                     dE             d eps       ncg     rms          rms(c)
DAV:   1    -0.308288802309E+04    0.16457E-03   -0.49499E-02  5952   0.755E-02    0.555E-02
DAV:   2    -0.308288807590E+04   -0.52812E-04   -0.58128E-04  6528   0.148E-02    0.780E-02
DAV:   3    -0.308288806544E+04    0.10463E-04   -0.11500E-05  6720   0.188E-03    0.655E-02
DAV:   4    -0.308288806887E+04   -0.34296E-05   -0.15737E-05  6144   0.188E-03
  12 F= -.31243150E+04 E0= -.31243150E+04  d E =0.704328E-05  mag=    -0.0000
       N       E                     dE             d eps       ncg     rms          rms(c)
DAV:   1    -0.308288833006E+04   -0.26462E-03   -0.49951E-02  6144   0.756E-02    0.832E-02
DAV:   2    -0.308288838666E+04   -0.56596E-04   -0.71739E-04  6528   0.155E-02    0.855E-02
DAV:   3    -0.308288837352E+04    0.13134E-04   -0.48602E-05  6720   0.357E-03    0.564E-02
DAV:   4    -0.308288840579E+04   -0.32270E-04   -0.11157E-04  6912   0.518E-03    0.510E-02
DAV:   5    -0.308288837312E+04    0.32668E-04   -0.10500E-04  6912   0.501E-03    0.130E-02
DAV:   6    -0.308288837004E+04    0.30834E-05   -0.74288E-06  5952   0.157E-03
  13 F= -.31243149E+04 E0= -.31243149E+04  d E =0.143684E-03  mag=    -0.0000
       N       E                     dE             d eps       ncg     rms          rms(c)
DAV:   1    -0.308288805103E+04    0.32209E-03   -0.51201E-02  5952   0.776E-02    0.992E-02
DAV:   2    -0.308288811381E+04   -0.62772E-04   -0.96618E-04  6528   0.188E-02    0.109E-01
DAV:   3    -0.308288808690E+04    0.26905E-04   -0.97835E-05  6144   0.498E-03    0.687E-02
DAV:   4    -0.308288813268E+04   -0.45775E-04   -0.17042E-04  6528   0.618E-03    0.624E-02
DAV:   5    -0.308288808926E+04    0.43420E-04   -0.17206E-04  6720   0.609E-03    0.154E-02
DAV:   6    -0.308288808703E+04    0.22238E-05   -0.80285E-06  6144   0.169E-03
  14 F= -.31243150E+04 E0= -.31243150E+04  d E =-.179155E-03  mag=    -0.0000
       N       E                     dE             d eps       ncg     rms          rms(c)
DAV:   1    -0.308288757861E+04    0.51065E-03   -0.51369E-02  5760   0.692E-02    0.645E-02
DAV:   2    -0.308288761475E+04   -0.36136E-04   -0.54403E-04  6528   0.132E-02    0.677E-02
DAV:   3    -0.308288760369E+04    0.11056E-04   -0.53470E-05  6720   0.337E-03    0.423E-02
DAV:   4    -0.308288762726E+04   -0.23567E-04   -0.11112E-04  6912   0.462E-03    0.431E-02
DAV:   5    -0.308288760526E+04    0.21991E-04   -0.10148E-04  7104   0.439E-03    0.123E-02
DAV:   6    -0.308288760306E+04    0.22058E-05   -0.10107E-05  5952   0.152E-03
  15 F= -.31243150E+04 E0= -.31243150E+04  d E =0.442604E-04  mag=    -0.0000
       N       E                     dE             d eps       ncg     rms          rms(c)
DAV:   1    -0.308288831695E+04   -0.71168E-03   -0.52864E-02  5952   0.706E-02    0.922E-02
DAV:   2    -0.308288837767E+04   -0.60722E-04   -0.87899E-04  6528   0.164E-02    0.964E-02
DAV:   3    -0.308288835180E+04    0.25872E-04   -0.10935E-04  6624   0.516E-03    0.574E-02
DAV:   4    -0.308288839938E+04   -0.47577E-04   -0.20952E-04  7104   0.692E-03    0.650E-02
DAV:   5    -0.308288834738E+04    0.51993E-04   -0.15636E-04  7104   0.601E-03    0.156E-02
DAV:   6    -0.308288834445E+04    0.29304E-05   -0.80117E-06  5952   0.166E-03
  16 F= -.31243150E+04 E0= -.31243150E+04  d E =-.349696E-04  mag=    -0.0000
       N       E                     dE             d eps       ncg     rms          rms(c)
DAV:   1    -0.308288798805E+04    0.35933E-03   -0.50497E-02  6336   0.764E-02    0.692E-02
DAV:   2    -0.308288804909E+04   -0.61038E-04   -0.71850E-04  6720   0.155E-02    0.758E-02
DAV:   3    -0.308288803629E+04    0.12798E-04   -0.46822E-05  6912   0.359E-03    0.471E-02
DAV:   4    -0.308288806942E+04   -0.33133E-04   -0.10089E-04  6912   0.509E-03    0.559E-02
DAV:   5    -0.308288803824E+04    0.31177E-04   -0.96572E-05  7104   0.468E-03    0.138E-02
DAV:   6    -0.308288803609E+04    0.21547E-05   -0.99417E-06  5760   0.160E-03
  17 F= -.31243150E+04 E0= -.31243150E+04  d E =0.435367E-04  mag=    -0.0000
       N       E                     dE             d eps       ncg     rms          rms(c)
DAV:   1    -0.308288773785E+04    0.30039E-03   -0.49442E-02  6144   0.766E-02    0.577E-02
DAV:   2    -0.308288777882E+04   -0.40966E-04   -0.50185E-04  6912   0.141E-02    0.677E-02
DAV:   3    -0.308288776872E+04    0.10095E-04   -0.19636E-05  6432   0.248E-03    0.489E-02
DAV:   4    -0.308288778326E+04   -0.14541E-04   -0.37869E-05  6912   0.326E-03    0.347E-02
DAV:   5    -0.308288776832E+04    0.14945E-04   -0.56942E-05  6912   0.355E-03    0.117E-02
DAV:   6    -0.308288776624E+04    0.20789E-05   -0.58851E-06  5760   0.134E-03
  18 F= -.31243150E+04 E0= -.31243150E+04  d E =-.231803E-04  mag=    -0.0000
       N       E                     dE             d eps       ncg     rms          rms(c)
DAV:   1    -0.308288779681E+04   -0.28497E-04   -0.50542E-02  6240   0.772E-02    0.683E-02
DAV:   2    -0.308288785052E+04   -0.53709E-04   -0.64051E-04  6912   0.156E-02    0.828E-02
DAV:   3    -0.308288783272E+04    0.17802E-04   -0.37396E-05  6432   0.317E-03    0.598E-02
DAV:   4    -0.308288785907E+04   -0.26347E-04   -0.59076E-05  6720   0.379E-03    0.446E-02
DAV:   5    -0.308288783347E+04    0.25596E-04   -0.92409E-05  6816   0.455E-03    0.112E-02
DAV:   6    -0.308288783191E+04    0.15653E-05   -0.46904E-06  5952   0.127E-03
  19 F= -.31243149E+04 E0= -.31243149E+04  d E =0.927317E-04  mag=    -0.0000
       N       E                     dE             d eps       ncg     rms          rms(c)
DAV:   1    -0.308288822147E+04   -0.38799E-03   -0.50400E-02  6144   0.811E-02    0.883E-02
DAV:   2    -0.308288829137E+04   -0.69900E-04   -0.95623E-04  6912   0.193E-02    0.106E-01
DAV:   3    -0.308288826249E+04    0.28875E-04   -0.73628E-05  6336   0.453E-03    0.720E-02
DAV:   4    -0.308288831118E+04   -0.48690E-04   -0.14627E-04  7104   0.590E-03    0.662E-02
DAV:   5    -0.308288826055E+04    0.50630E-04   -0.18185E-04  7104   0.644E-03    0.203E-02
DAV:   6    -0.308288825633E+04    0.42223E-05   -0.12088E-05  6720   0.206E-03
  20 F= -.31243150E+04 E0= -.31243150E+04  d E =-.781131E-04  mag=    -0.0000
       N       E                     dE             d eps       ncg     rms          rms(c)
DAV:   1    -0.308288792135E+04    0.33920E-03   -0.49824E-02  5760   0.739E-02    0.614E-02
DAV:   2    -0.308288796045E+04   -0.39104E-04   -0.58107E-04  6720   0.152E-02    0.813E-02
DAV:   3    -0.308288795152E+04    0.89297E-05   -0.15142E-05  6432   0.220E-03
  21 F= -.31243150E+04 E0= -.31243150E+04  d E =-.280191E-04  mag=    -0.0000
       N       E                     dE             d eps       ncg     rms          rms(c)
DAV:   1    -0.308288775994E+04    0.20051E-03   -0.51071E-02  5760   0.763E-02    0.731E-02
DAV:   2    -0.308288783018E+04   -0.70240E-04   -0.89379E-04  6912   0.177E-02    0.908E-02
DAV:   3    -0.308288779226E+04    0.37916E-04   -0.11010E-04  6624   0.510E-03    0.554E-02
DAV:   4    -0.308288781561E+04   -0.23346E-04   -0.81621E-05  6528   0.390E-03    0.486E-02
DAV:   5    -0.308288779878E+04    0.16825E-04   -0.12600E-04  6912   0.487E-03    0.245E-02
DAV:   6    -0.308288779220E+04    0.65861E-05   -0.19369E-05  6912   0.240E-03
  22 F= -.31243149E+04 E0= -.31243149E+04  d E =0.136394E-03  mag=    -0.0000
       N       E                     dE             d eps       ncg     rms          rms(c)
DAV:   1    -0.308288772460E+04    0.74181E-04   -0.50479E-02  5952   0.795E-02    0.816E-02
DAV:   2    -0.308288778392E+04   -0.59315E-04   -0.80590E-04  6720   0.179E-02    0.917E-02
DAV:   3    -0.308288776775E+04    0.16172E-04   -0.49172E-05  6720   0.384E-03    0.597E-02
DAV:   4    -0.308288780052E+04   -0.32777E-04   -0.11306E-04  6912   0.508E-03    0.579E-02
DAV:   5    -0.308288776646E+04    0.34062E-04   -0.13124E-04  7104   0.530E-03    0.177E-02
DAV:   6    -0.308288776279E+04    0.36700E-05   -0.13459E-05  6528   0.182E-03
  23 F= -.31243150E+04 E0= -.31243150E+04  d E =-.841988E-04  mag=    -0.0000
       N       E                     dE             d eps       ncg     rms          rms(c)
DAV:   1    -0.308288783802E+04   -0.71561E-04   -0.49100E-02  5952   0.759E-02    0.470E-02
DAV:   2    -0.308288787893E+04   -0.40911E-04   -0.50400E-04  6528   0.137E-02    0.600E-02
DAV:   3    -0.308288786691E+04    0.12026E-04   -0.25251E-05  6528   0.241E-03    0.425E-02
DAV:   4    -0.308288787682E+04   -0.99114E-05   -0.29778E-05  6720   0.233E-03
  24 F= -.31243150E+04 E0= -.31243150E+04  d E =-.690091E-04  mag=    -0.0000
       N       E                     dE             d eps       ncg     rms          rms(c)
DAV:   1    -0.308288780371E+04    0.63196E-04   -0.50763E-02  6144   0.790E-02    0.792E-02
DAV:   2    -0.308288786023E+04   -0.56515E-04   -0.73281E-04  6720   0.170E-02    0.926E-02
DAV:   3    -0.308288784682E+04    0.13406E-04   -0.37654E-05  6720   0.326E-03    0.673E-02
DAV:   4    -0.308288789002E+04   -0.43195E-04   -0.12711E-04  7104   0.508E-03    0.622E-02
DAV:   5    -0.308288785044E+04    0.39579E-04   -0.18651E-04  7104   0.591E-03    0.204E-02
DAV:   6    -0.308288784647E+04    0.39636E-05   -0.15871E-05  6528   0.194E-03
  25 F= -.31243149E+04 E0= -.31243149E+04  d E =0.157811E-03  mag=    -0.0000
       N       E                     dE             d eps       ncg     rms          rms(c)
DAV:   1    -0.308288790619E+04   -0.55751E-04   -0.50116E-02  5952   0.783E-02    0.907E-02
DAV:   2    -0.308288797400E+04   -0.67817E-04   -0.90659E-04  6720   0.182E-02    0.101E-01
DAV:   3    -0.308288795677E+04    0.17236E-04   -0.65008E-05  6720   0.400E-03    0.665E-02
DAV:   4    -0.308288800799E+04   -0.51227E-04   -0.20764E-04  7200   0.627E-03    0.700E-02
DAV:   5    -0.308288795652E+04    0.51473E-04   -0.23150E-04  7296   0.629E-03    0.204E-02
DAV:   6    -0.308288795136E+04    0.51649E-05   -0.17687E-05  6912   0.206E-03
  26 F= -.31243150E+04 E0= -.31243150E+04  d E =-.876144E-04  mag=    -0.0000
       N       E                     dE             d eps       ncg     rms          rms(c)
DAV:   1    -0.308288797398E+04   -0.17455E-04   -0.49059E-02  5568   0.711E-02    0.667E-02
DAV:   2    -0.308288803541E+04   -0.61438E-04   -0.70446E-04  6528   0.150E-02    0.883E-02
DAV:   3    -0.308288802326E+04    0.12151E-04   -0.16228E-05  6528   0.193E-03    0.753E-02
DAV:   4    -0.308288803561E+04   -0.12343E-04   -0.30925E-05  6144   0.246E-03    0.426E-02
DAV:   5    -0.308288801623E+04    0.19373E-04   -0.98609E-05  7104   0.418E-03    0.183E-02
DAV:   6    -0.308288801316E+04    0.30746E-05   -0.64576E-06  5760   0.144E-03
  27 F= -.31243150E+04 E0= -.31243150E+04  d E =-.965028E-05  mag=    -0.0000
       N       E                     dE             d eps       ncg     rms          rms(c)
DAV:   1    -0.308288836806E+04   -0.35183E-03   -0.49000E-02  5568   0.712E-02    0.769E-02
DAV:   2    -0.308288842825E+04   -0.60194E-04   -0.80520E-04  6528   0.153E-02    0.849E-02
DAV:   3    -0.308288840414E+04    0.24117E-04   -0.10309E-04  6720   0.437E-03    0.549E-02
DAV:   4    -0.308288843483E+04   -0.30697E-04   -0.14004E-04  6720   0.489E-03    0.475E-02
DAV:   5    -0.308288840587E+04    0.28966E-04   -0.14520E-04  6912   0.499E-03    0.164E-02
DAV:   6    -0.308288840113E+04    0.47359E-05   -0.18914E-05  6336   0.202E-03
  28 F= -.31243149E+04 E0= -.31243149E+04  d E =0.114922E-03  mag=    -0.0000
       N       E                     dE             d eps       ncg     rms          rms(c)
DAV:   1    -0.308288782044E+04    0.58543E-03   -0.49512E-02  5952   0.770E-02    0.945E-02
DAV:   2    -0.308288789579E+04   -0.75353E-04   -0.93739E-04  6912   0.173E-02    0.866E-02
DAV:   3    -0.308288788000E+04    0.15796E-04   -0.15321E-04  6720   0.590E-03    0.465E-02
DAV:   4    -0.308288791051E+04   -0.30509E-04   -0.21876E-04  7296   0.682E-03    0.554E-02
DAV:   5    -0.308288787923E+04    0.31273E-04   -0.14081E-04  7296   0.531E-03    0.128E-02
DAV:   6    -0.308288787710E+04    0.21298E-05   -0.11676E-05  6144   0.163E-03
  29 F= -.31243150E+04 E0= -.31243150E+04  d E =-.148630E-03  mag=    -0.0000
       N       E                     dE             d eps       ncg     rms          rms(c)
DAV:   1    -0.308288802260E+04   -0.14336E-03   -0.48919E-02  6144   0.757E-02    0.642E-02
DAV:   2    -0.308288806496E+04   -0.42365E-04   -0.53589E-04  7104   0.142E-02    0.719E-02
DAV:   3    -0.308288805674E+04    0.82182E-05   -0.16298E-05  6720   0.231E-03
  30 F= -.31243149E+04 E0= -.31243149E+04  d E =0.764652E-04  mag=    -0.0000
       N       E                     dE             d eps       ncg     rms          rms(c)
DAV:   1    -0.308288774938E+04    0.31558E-03   -0.49999E-02  6144   0.749E-02    0.847E-02
DAV:   2    -0.308288783287E+04   -0.83491E-04   -0.10046E-03  6912   0.187E-02    0.101E-01
DAV:   3    -0.308288777252E+04    0.60354E-04   -0.15371E-04  6624   0.644E-03    0.575E-02
DAV:   4    -0.308288779389E+04   -0.21370E-04   -0.61230E-05  6528   0.405E-03    0.467E-02
DAV:   5    -0.308288777990E+04    0.13994E-04   -0.89964E-05  7104   0.473E-03    0.223E-02
DAV:   6    -0.308288777226E+04    0.76403E-05   -0.22331E-05  6720   0.249E-03
  31 F= -.31243149E+04 E0= -.31243149E+04  d E =0.250156E-04  mag=    -0.0000
       N       E                     dE             d eps       ncg     rms          rms(c)
DAV:   1    -0.308288830958E+04   -0.52968E-03   -0.49434E-02  6144   0.806E-02    0.777E-02
DAV:   2    -0.308288837390E+04   -0.64321E-04   -0.81512E-04  7104   0.170E-02    0.863E-02
DAV:   3    -0.308288835729E+04    0.16605E-04   -0.62647E-05  6528   0.386E-03    0.560E-02
DAV:   4    -0.308288839799E+04   -0.40699E-04   -0.16417E-04  6912   0.563E-03    0.601E-02
DAV:   5    -0.308288835778E+04    0.40217E-04   -0.18211E-04  7104   0.563E-03    0.176E-02
DAV:   6    -0.308288835341E+04    0.43660E-05   -0.15428E-05  6720   0.194E-03
  32 F= -.31243150E+04 E0= -.31243150E+04  d E =-.115452E-03  mag=    -0.0000
       N       E                     dE             d eps       ncg     rms          rms(c)
DAV:   1    -0.308288805467E+04    0.30310E-03   -0.49291E-02  5760   0.716E-02    0.570E-02
DAV:   2    -0.308288809655E+04   -0.41878E-04   -0.51050E-04  6528   0.133E-02    0.679E-02
DAV:   3    -0.308288809129E+04    0.52601E-05   -0.10943E-05  6720   0.177E-03
  33 F= -.31243150E+04 E0= -.31243150E+04  d E =0.577847E-04  mag=    -0.0000
       N       E                     dE             d eps       ncg     rms          rms(c)
DAV:   1    -0.308288773493E+04    0.36162E-03   -0.50552E-02  5760   0.736E-02    0.819E-02
DAV:   2    -0.308288783602E+04   -0.10109E-03   -0.12308E-03  6720   0.191E-02    0.110E-01
DAV:   3    -0.308288775526E+04    0.80754E-04   -0.21024E-04  6528   0.657E-03    0.602E-02
DAV:   4    -0.308288778379E+04   -0.28524E-04   -0.75541E-05  6912   0.402E-03    0.532E-02
DAV:   5    -0.308288776266E+04    0.21124E-04   -0.11701E-04  7296   0.483E-03    0.238E-02
DAV:   6    -0.308288775369E+04    0.89701E-05   -0.29022E-05  6528   0.259E-03
  34 F= -.31243149E+04 E0= -.31243149E+04  d E =0.610035E-04  mag=    -0.0000
       N       E                     dE             d eps       ncg     rms          rms(c)
DAV:   1    -0.308288841597E+04   -0.65331E-03   -0.50842E-02  5760   0.777E-02    0.103E-01
DAV:   2    -0.308288848803E+04   -0.72058E-04   -0.99268E-04  6528   0.181E-02    0.106E-01
DAV:   3    -0.308288846159E+04    0.26437E-04   -0.13961E-04  6720   0.559E-03    0.631E-02
DAV:   4    -0.308288852335E+04   -0.61761E-04   -0.29164E-04  7104   0.763E-03    0.753E-02
DAV:   5    -0.308288845863E+04    0.64719E-04   -0.22770E-04  7104   0.661E-03    0.203E-02
DAV:   6    -0.308288845342E+04    0.52144E-05   -0.20762E-05  6912   0.230E-03
  35 F= -.31243150E+04 E0= -.31243150E+04  d E =-.989744E-04  mag=    -0.0000
       N       E                     dE             d eps       ncg     rms          rms(c)
DAV:   1    -0.308288808850E+04    0.37013E-03   -0.50719E-02  5376   0.728E-02    0.572E-02
DAV:   2    -0.308288812121E+04   -0.32714E-04   -0.59723E-04  6528   0.149E-02    0.745E-02
DAV:   3    -0.308288810439E+04    0.16827E-04   -0.32677E-05  6528   0.295E-03    0.512E-02
DAV:   4    -0.308288811795E+04   -0.13558E-04   -0.44325E-05  6528   0.304E-03    0.406E-02
DAV:   5    -0.308288810245E+04    0.15499E-04   -0.69811E-05  7296   0.377E-03    0.176E-02
DAV:   6    -0.308288809983E+04    0.26182E-05   -0.52201E-06  5568   0.148E-03
  36 F= -.31243150E+04 E0= -.31243150E+04  d E =0.457015E-04  mag=    -0.0000
       N       E                     dE             d eps       ncg     rms          rms(c)
DAV:   1    -0.308288822048E+04   -0.11803E-03   -0.50368E-02  5376   0.698E-02    0.402E-02
DAV:   2    -0.308288824510E+04   -0.24625E-04   -0.44244E-04  6528   0.126E-02    0.555E-02
DAV:   3    -0.308288823420E+04    0.10902E-04   -0.20778E-05  6528   0.242E-03    0.372E-02
DAV:   4    -0.308288823978E+04   -0.55771E-05   -0.22083E-05  6336   0.222E-03
  37 F= -.31243150E+04 E0= -.31243150E+04  d E =-.428663E-04  mag=    -0.0000
       N       E                     dE             d eps       ncg     rms          rms(c)
DAV:   1    -0.308288837010E+04   -0.13590E-03   -0.51423E-02  5568   0.736E-02    0.786E-02
DAV:   2    -0.308288842585E+04   -0.55746E-04   -0.83987E-04  6528   0.155E-02    0.730E-02
DAV:   3    -0.308288841402E+04    0.11826E-04   -0.10029E-04  6720   0.488E-03    0.404E-02
DAV:   4    -0.308288843492E+04   -0.20896E-04   -0.15245E-04  6912   0.582E-03    0.504E-02
DAV:   5    -0.308288840956E+04    0.25353E-04   -0.95435E-05  6912   0.456E-03    0.136E-02
DAV:   6    -0.308288840866E+04    0.90618E-06   -0.60826E-06  5952   0.139E-03
  38 F= -.31243150E+04 E0= -.31243150E+04  d E =0.378360E-04  mag=    -0.0000
       N       E                     dE             d eps       ncg     rms          rms(c)
DAV:   1    -0.308288827224E+04    0.13732E-03   -0.51103E-02  5760   0.713E-02    0.613E-02
DAV:   2    -0.308288830444E+04   -0.32195E-04   -0.62552E-04  6528   0.149E-02    0.762E-02
DAV:   3    -0.308288829029E+04    0.14150E-04   -0.36862E-05  6528   0.279E-03    0.556E-02
DAV:   4    -0.308288830461E+04   -0.14324E-04   -0.48254E-05  6432   0.309E-03    0.433E-02
DAV:   5    -0.308288829026E+04    0.14355E-04   -0.10553E-04  6912   0.425E-03    0.170E-02
DAV:   6    -0.308288828702E+04    0.32409E-05   -0.11631E-05  5952   0.170E-03
  39 F= -.31243150E+04 E0= -.31243150E+04  d E =-.212137E-04  mag=    -0.0000
       N       E                     dE             d eps       ncg     rms          rms(c)
DAV:   1    -0.308288820810E+04    0.82159E-04   -0.50359E-02  5568   0.694E-02    0.420E-02
DAV:   2    -0.308288823463E+04   -0.26531E-04   -0.42191E-04  6336   0.121E-02    0.509E-02
DAV:   3    -0.308288822643E+04    0.82048E-05   -0.22427E-05  6240   0.227E-03
  40 F= -.31243150E+04 E0= -.31243150E+04  d E =-.191023E-04  mag=    -0.0000
       N       E                     dE             d eps       ncg     rms          rms(c)
DAV:   1    -0.308288766709E+04    0.56754E-03   -0.50916E-02  5760   0.744E-02    0.734E-02
DAV:   2    -0.308288775863E+04   -0.91543E-04   -0.11652E-03  6336   0.171E-02    0.753E-02
DAV:   3    -0.308288771674E+04    0.41894E-04   -0.33919E-04  7008   0.774E-03    0.362E-02
DAV:   4    -0.308288771914E+04   -0.24027E-05   -0.10892E-04  7104   0.425E-03    0.338E-02
DAV:   5    -0.308288771801E+04    0.11362E-05   -0.61557E-05  6528   0.334E-03
  41 F= -.31243150E+04 E0= -.31243150E+04  d E =-.338997E-04  mag=    -0.0000
       N       E                     dE             d eps       ncg     rms          rms(c)
DAV:   1    -0.308288805932E+04   -0.34018E-03   -0.52802E-02  5952   0.720E-02    0.788E-02
DAV:   2    -0.308288810090E+04   -0.41576E-04   -0.87782E-04  6528   0.171E-02    0.994E-02
DAV:   3    -0.308288808330E+04    0.17596E-04   -0.41227E-05  6528   0.344E-03    0.677E-02
DAV:   4    -0.308288809611E+04   -0.12805E-04   -0.46092E-05  6528   0.341E-03    0.593E-02
DAV:   5    -0.308288807756E+04    0.18551E-04   -0.97268E-05  6720   0.467E-03    0.197E-02
DAV:   6    -0.308288807431E+04    0.32445E-05   -0.13751E-05  6144   0.178E-03
  42 F= -.31243149E+04 E0= -.31243149E+04  d E =0.930883E-04  mag=    -0.0000
       N       E                     dE             d eps       ncg     rms          rms(c)
DAV:   1    -0.308288832889E+04   -0.25134E-03   -0.50265E-02  5760   0.706E-02    0.443E-02
DAV:   2    -0.308288835418E+04   -0.25288E-04   -0.45627E-04  6336   0.126E-02    0.557E-02
DAV:   3    -0.308288834284E+04    0.11341E-04   -0.29627E-05  6336   0.272E-03    0.352E-02
DAV:   4    -0.308288835245E+04   -0.96145E-05   -0.41698E-05  6528   0.275E-03
  43 F= -.31243151E+04 E0= -.31243151E+04  d E =-.121499E-03  mag=    -0.0000
       N       E                     dE             d eps       ncg     rms          rms(c)
DAV:   1    -0.308288769047E+04    0.65237E-03   -0.50642E-02  5760   0.717E-02    0.679E-02
DAV:   2    -0.308288775083E+04   -0.60362E-04   -0.73878E-04  6336   0.140E-02    0.610E-02
DAV:   3    -0.308288774623E+04    0.46015E-05   -0.46223E-05  6720   0.341E-03
  44 F= -.31243151E+04 E0= -.31243151E+04  d E =-.616438E-05  mag=    -0.0000
       N       E                     dE             d eps       ncg     rms          rms(c)
DAV:   1    -0.308288825720E+04   -0.50638E-03   -0.51740E-02  5568   0.712E-02    0.724E-02
DAV:   2    -0.308288837437E+04   -0.11716E-03   -0.16306E-03  6336   0.201E-02    0.105E-01
DAV:   3    -0.308288827352E+04    0.10085E-03   -0.32444E-04  6336   0.787E-03    0.468E-02
DAV:   4    -0.308288829206E+04   -0.18546E-04   -0.76425E-05  6528   0.383E-03    0.479E-02
DAV:   5    -0.308288827699E+04    0.15074E-04   -0.94177E-05  7296   0.420E-03    0.248E-02
DAV:   6    -0.308288826886E+04    0.81265E-05   -0.30618E-05  6912   0.262E-03
  45 F= -.31243150E+04 E0= -.31243150E+04  d E =0.783682E-04  mag=    -0.0000
       N       E                     dE             d eps       ncg     rms          rms(c)
DAV:   1    -0.308288829514E+04   -0.18150E-04   -0.51035E-02  5760   0.716E-02    0.574E-02
DAV:   2    -0.308288832768E+04   -0.32536E-04   -0.52375E-04  6528   0.137E-02    0.640E-02
DAV:   3    -0.308288832107E+04    0.66044E-05   -0.19212E-05  6336   0.225E-03
  46 F= -.31243150E+04 E0= -.31243150E+04  d E =0.132167E-04  mag=    -0.0000
       N       E                     dE             d eps       ncg     rms          rms(c)
DAV:   1    -0.308288772896E+04    0.59872E-03   -0.53251E-02  5568   0.716E-02    0.980E-02
DAV:   2    -0.308288781790E+04   -0.88943E-04   -0.15314E-03  6336   0.213E-02    0.126E-01
DAV:   3    -0.308288773917E+04    0.78733E-04   -0.19941E-04  6720   0.763E-03    0.644E-02
DAV:   4    -0.308288776517E+04   -0.26005E-04   -0.97818E-05  6720   0.459E-03    0.610E-02
DAV:   5    -0.308288774970E+04    0.15475E-04   -0.18668E-04  7296   0.572E-03    0.391E-02
DAV:   6    -0.308288773672E+04    0.12978E-04   -0.50024E-05  7104   0.338E-03    0.835E-03
DAV:   7    -0.308288773644E+04    0.27468E-06   -0.64516E-07  5568   0.912E-04
  47 F= -.31243149E+04 E0= -.31243149E+04  d E =0.598986E-04  mag=    -0.0000
       N       E                     dE             d eps       ncg     rms          rms(c)
DAV:   1    -0.308288784429E+04   -0.10758E-03   -0.50997E-02  5376   0.513E-02    0.312E-02
DAV:   2    -0.308288786792E+04   -0.23624E-04   -0.38502E-04  6528   0.909E-03    0.433E-02
DAV:   3    -0.308288786082E+04    0.70938E-05   -0.12667E-05  6240   0.201E-03
  48 F= -.31243150E+04 E0= -.31243150E+04  d E =-.713466E-04  mag=    -0.0000
       N       E                     dE             d eps       ncg     rms          rms(c)
DAV:   1    -0.308288817303E+04   -0.30511E-03   -0.50832E-02  5376   0.515E-02    0.320E-02
DAV:   2    -0.308288819821E+04   -0.25181E-04   -0.34772E-04  6336   0.751E-03    0.279E-02
DAV:   3    -0.308288819609E+04    0.21188E-05   -0.80579E-06  6144   0.147E-03
  49 F= -.31243151E+04 E0= -.31243151E+04  d E =-.923093E-04  mag=    -0.0000
       N       E                     dE             d eps       ncg     rms          rms(c)
DAV:   1    -0.308288788825E+04    0.30997E-03   -0.51365E-02  5760   0.672E-02    0.672E-02
DAV:   2    -0.308288794506E+04   -0.56814E-04   -0.83643E-04  6528   0.155E-02    0.936E-02
DAV:   3    -0.308288792676E+04    0.18301E-04   -0.33994E-05  6528   0.315E-03    0.664E-02
DAV:   4    -0.308288793644E+04   -0.96807E-05   -0.32147E-05  6336   0.279E-03
  50 F= -.31243150E+04 E0= -.31243150E+04  d E =0.740444E-04  mag=    -0.0000
       N       E                     dE             d eps       ncg     rms          rms(c)
DAV:   1    -0.308288772553E+04    0.20123E-03   -0.52570E-02  5760   0.709E-02    0.713E-02
DAV:   2    -0.308288778142E+04   -0.55891E-04   -0.98871E-04  6720   0.187E-02    0.106E-01
DAV:   3    -0.308288774312E+04    0.38305E-04   -0.67292E-05  6720   0.452E-03    0.667E-02
DAV:   4    -0.308288776278E+04   -0.19663E-04   -0.52108E-05  6720   0.331E-03    0.586E-02
DAV:   5    -0.308288774676E+04    0.16022E-04   -0.13192E-04  7296   0.495E-03    0.326E-02
DAV:   6    -0.308288773741E+04    0.93462E-05   -0.29575E-05  6912   0.260E-03
  51 F= -.31243150E+04 E0= -.31243150E+04  d E =-.249780E-04  mag=    -0.0000
       N       E                     dE             d eps       ncg     rms          rms(c)
DAV:   1    -0.308288833734E+04   -0.59059E-03   -0.52842E-02  5760   0.720E-02    0.982E-02
DAV:   2    -0.308288838656E+04   -0.49218E-04   -0.97108E-04  6144   0.177E-02    0.109E-01
DAV:   3    -0.308288836171E+04    0.24854E-04   -0.80803E-05  6720   0.469E-03    0.660E-02
DAV:   4    -0.308288839637E+04   -0.34664E-04   -0.14622E-04  6720   0.573E-03    0.677E-02
DAV:   5    -0.308288836142E+04    0.34953E-04   -0.19054E-04  7104   0.608E-03    0.247E-02
DAV:   6    -0.308288835458E+04    0.68375E-05   -0.23418E-05  6720   0.228E-03
  52 F= -.31243151E+04 E0= -.31243151E+04  d E =-.183749E-04  mag=    -0.0000
       N       E                     dE             d eps       ncg     rms          rms(c)
DAV:   1    -0.308288819520E+04    0.16622E-03   -0.52495E-02  5760   0.700E-02    0.773E-02
DAV:   2    -0.308288823972E+04   -0.44527E-04   -0.11021E-03  6528   0.183E-02    0.110E-01
DAV:   3    -0.308288820095E+04    0.38776E-04   -0.77642E-05  6528   0.478E-03    0.686E-02
DAV:   4    -0.308288820845E+04   -0.75054E-05   -0.31019E-05  6336   0.305E-03
  53 F= -.31243149E+04 E0= -.31243149E+04  d E =0.132783E-03  mag=    -0.0000
       N       E                     dE             d eps       ncg     rms          rms(c)
DAV:   1    -0.308288799533E+04    0.20561E-03   -0.55263E-02  5760   0.634E-02    0.105E-01
DAV:   2    -0.308288805734E+04   -0.62007E-04   -0.21108E-03  6720   0.244E-02    0.166E-01
DAV:   3    -0.308288794209E+04    0.11525E-03   -0.19120E-04  6912   0.751E-03    0.964E-02
DAV:   4    -0.308288795509E+04   -0.13002E-04   -0.62315E-05  6336   0.389E-03    0.770E-02
DAV:   5    -0.308288793788E+04    0.17209E-04   -0.19015E-04  7104   0.634E-03    0.379E-02
DAV:   6    -0.308288792214E+04    0.15743E-04   -0.60585E-05  7104   0.352E-03    0.116E-02
DAV:   7    -0.308288792192E+04    0.22305E-06   -0.14194E-08  5376   0.859E-04
  54 F= -.31243150E+04 E0= -.31243150E+04  d E =-.994963E-04  mag=    -0.0000
       N       E                     dE             d eps       ncg     rms          rms(c)
DAV:   1    -0.308288819938E+04   -0.27724E-03   -0.50528E-02  5760   0.536E-02    0.260E-02
DAV:   2    -0.308288822174E+04   -0.22362E-04   -0.31171E-04  6528   0.794E-03    0.248E-02
DAV:   3    -0.308288821853E+04    0.32079E-05   -0.84982E-06  6240   0.181E-03
  55 F= -.31243150E+04 E0= -.31243150E+04  d E =-.721639E-05  mag=    -0.0000
       N       E                     dE             d eps       ncg     rms          rms(c)
DAV:   1    -0.308288820783E+04    0.13912E-04   -0.51404E-02  5760   0.681E-02    0.557E-02
DAV:   2    -0.308288823904E+04   -0.31216E-04   -0.69151E-04  6720   0.139E-02    0.509E-02
DAV:   3    -0.308288822854E+04    0.10507E-04   -0.80354E-05  6912   0.448E-03    0.288E-02
DAV:   4    -0.308288823109E+04   -0.25497E-05   -0.57596E-05  6816   0.370E-03
  56 F= -.31243150E+04 E0= -.31243150E+04  d E =-.546904E-05  mag=    -0.0000
       N       E                     dE             d eps       ncg     rms          rms(c)
DAV:   1    -0.308288772954E+04    0.49899E-03   -0.50616E-02  5760   0.690E-02    0.604E-02
DAV:   2    -0.308288778180E+04   -0.52259E-04   -0.68296E-04  6528   0.139E-02    0.592E-02
DAV:   3    -0.308288776694E+04    0.14861E-04   -0.84299E-05  6720   0.464E-03    0.300E-02
DAV:   4    -0.308288777698E+04   -0.10041E-04   -0.65621E-05  6720   0.404E-03    0.346E-02
DAV:   5    -0.308288776660E+04    0.10380E-04   -0.40341E-05  6528   0.326E-03    0.115E-02
DAV:   6    -0.308288776491E+04    0.16941E-05   -0.57051E-06  5568   0.141E-03
  57 F= -.31243151E+04 E0= -.31243151E+04  d E =-.184100E-04  mag=    -0.0000
       N       E                     dE             d eps       ncg     rms          rms(c)
DAV:   1    -0.308288827865E+04   -0.51204E-03   -0.53015E-02  5760   0.718E-02    0.964E-02
DAV:   2    -0.308288831728E+04   -0.38630E-04   -0.96059E-04  6720   0.180E-02    0.114E-01
DAV:   3    -0.308288828827E+04    0.29001E-04   -0.66963E-05  6720   0.439E-03    0.731E-02
DAV:   4    -0.308288831490E+04   -0.26624E-04   -0.82505E-05  6720   0.470E-03    0.669E-02
DAV:   5    -0.308288828441E+04    0.30485E-04   -0.12407E-04  7296   0.568E-03    0.236E-02
DAV:   6    -0.308288827868E+04    0.57301E-05   -0.11866E-05  6144   0.207E-03
  58 F= -.31243150E+04 E0= -.31243150E+04  d E =0.809467E-04  mag=    -0.0000
       N       E                     dE             d eps       ncg     rms          rms(c)
DAV:   1    -0.308288767130E+04    0.61312E-03   -0.51682E-02  5760   0.748E-02    0.810E-02
DAV:   2    -0.308288774744E+04   -0.76147E-04   -0.13097E-03  6528   0.205E-02    0.119E-01
DAV:   3    -0.308288768813E+04    0.59316E-04   -0.12072E-04  6336   0.569E-03    0.701E-02
DAV:   4    -0.308288770963E+04   -0.21499E-04   -0.46327E-05  6528   0.370E-03    0.627E-02
DAV:   5    -0.308288769099E+04    0.18633E-04   -0.11963E-04  7296   0.496E-03    0.257E-02
DAV:   6    -0.308288768411E+04    0.68868E-05   -0.30120E-05  6912   0.251E-03
  59 F= -.31243149E+04 E0= -.31243149E+04  d E =0.515387E-04  mag=    -0.0000
       N       E                     dE             d eps       ncg     rms          rms(c)
DAV:   1    -0.308288834609E+04   -0.65510E-03   -0.52600E-02  5760   0.731E-02    0.859E-02
DAV:   2    -0.308288843719E+04   -0.91094E-04   -0.19632E-03  6720   0.232E-02    0.151E-01
DAV:   3    -0.308288831579E+04    0.12140E-03   -0.18311E-04  6528   0.662E-03    0.922E-02
DAV:   4    -0.308288831360E+04    0.21918E-05   -0.66343E-05  6528   0.386E-03
  60 F= -.31243151E+04 E0= -.31243151E+04  d E =-.152373E-03  mag=    -0.0000
       N       E                     dE             d eps       ncg     rms          rms(c)
DAV:   1    -0.308288814475E+04    0.17104E-03   -0.52921E-02  5952   0.719E-02    0.884E-02
DAV:   2    -0.308288825999E+04   -0.11524E-03   -0.24686E-03  6912   0.257E-02    0.161E-01
DAV:   3    -0.308288809657E+04    0.16342E-03   -0.27524E-04  6432   0.817E-03    0.888E-02
DAV:   4    -0.308288809832E+04   -0.17513E-05   -0.50690E-05  6528   0.346E-03
  61 F= -.31243150E+04 E0= -.31243150E+04  d E =0.109495E-03  mag=    -0.0000
       N       E                     dE             d eps       ncg     rms          rms(c)
DAV:   1    -0.308288805632E+04    0.40249E-04   -0.50894E-02  5760   0.779E-02    0.868E-02
DAV:   2    -0.308288818455E+04   -0.12823E-03   -0.21098E-03  7104   0.248E-02    0.145E-01
DAV:   3    -0.308288805310E+04    0.13146E-03   -0.27692E-04  6720   0.812E-03    0.769E-02
DAV:   4    -0.308288807618E+04   -0.23078E-04   -0.81725E-05  6528   0.406E-03    0.716E-02
DAV:   5    -0.308288805497E+04    0.21207E-04   -0.19552E-04  7488   0.560E-03    0.410E-02
DAV:   6    -0.308288803771E+04    0.17260E-04   -0.57329E-05  6912   0.355E-03    0.897E-03
DAV:   7    -0.308288803739E+04    0.32247E-06    0.76192E-08  5760   0.840E-04
  62 F= -.31243150E+04 E0= -.31243150E+04  d E =-.358631E-05  mag=    -0.0000
       N       E                     dE             d eps       ncg     rms          rms(c)
DAV:   1    -0.308288823885E+04   -0.20114E-03   -0.48842E-02  5760   0.723E-02    0.504E-02
DAV:   2    -0.308288827022E+04   -0.31368E-04   -0.53401E-04  6528   0.137E-02    0.657E-02
DAV:   3    -0.308288825979E+04    0.10429E-04   -0.21922E-05  6528   0.241E-03    0.482E-02
DAV:   4    -0.308288826518E+04   -0.53947E-05   -0.32999E-05  6336   0.262E-03
  63 F= -.31243150E+04 E0= -.31243150E+04  d E =-.540907E-04  mag=    -0.0000
       N       E                     dE             d eps       ncg     rms          rms(c)
DAV:   1    -0.308288836048E+04   -0.10069E-03   -0.49651E-02  5760   0.739E-02    0.627E-02
DAV:   2    -0.308288841648E+04   -0.56002E-04   -0.84116E-04  6528   0.161E-02    0.889E-02
DAV:   3    -0.308288839747E+04    0.19006E-04   -0.36924E-05  6528   0.285E-03    0.685E-02
DAV:   4    -0.308288841010E+04   -0.12627E-04   -0.38555E-05  6336   0.278E-03    0.513E-02
DAV:   5    -0.308288839202E+04    0.18082E-04   -0.13173E-04  7104   0.466E-03    0.236E-02
DAV:   6    -0.308288838615E+04    0.58716E-05   -0.17165E-05  6336   0.199E-03
  64 F= -.31243149E+04 E0= -.31243149E+04  d E =0.103155E-03  mag=    -0.0000
       N       E                     dE             d eps       ncg     rms          rms(c)
DAV:   1    -0.308288809872E+04    0.29330E-03   -0.48568E-02  5760   0.789E-02    0.760E-02
DAV:   2    -0.308288817073E+04   -0.72013E-04   -0.10012E-03  6720   0.182E-02    0.960E-02
DAV:   3    -0.308288813562E+04    0.35114E-04   -0.11629E-04  6720   0.497E-03    0.577E-02
DAV:   4    -0.308288816972E+04   -0.34096E-04   -0.12505E-04  6720   0.481E-03    0.596E-02
DAV:   5    -0.308288814041E+04    0.29306E-04   -0.16818E-04  7104   0.533E-03    0.218E-02
DAV:   6    -0.308288813508E+04    0.53272E-05   -0.20493E-05  6624   0.222E-03
  65 F= -.31243150E+04 E0= -.31243150E+04  d E =-.109998E-03  mag=    -0.0000
       N       E                     dE             d eps       ncg     rms          rms(c)
DAV:   1    -0.308288822048E+04   -0.80073E-04   -0.48397E-02  6144   0.736E-02    0.549E-02
DAV:   2    -0.308288825919E+04   -0.38709E-04   -0.54715E-04  7104   0.144E-02    0.724E-02
DAV:   3    -0.308288825173E+04    0.74636E-05   -0.14169E-05  6528   0.206E-03
  66 F= -.31243150E+04 E0= -.31243150E+04  d E =0.709901E-04  mag=    -0.0000
       N       E                     dE             d eps       ncg     rms          rms(c)
DAV:   1    -0.308288784861E+04    0.41058E-03   -0.47687E-02  6144   0.758E-02    0.683E-02
DAV:   2    -0.308288793320E+04   -0.84582E-04   -0.11491E-03  7104   0.174E-02    0.775E-02
DAV:   3    -0.308288787113E+04    0.62066E-04   -0.37375E-04  6912   0.811E-03    0.304E-02
DAV:   4    -0.308288787539E+04   -0.42600E-05   -0.74795E-05  6912   0.369E-03
  67 F= -.31243149E+04 E0= -.31243149E+04  d E =0.315555E-04  mag=    -0.0000
       N       E                     dE             d eps       ncg     rms          rms(c)
DAV:   1    -0.308288825449E+04   -0.38336E-03   -0.50116E-02  6144   0.814E-02    0.100E-01
DAV:   2    -0.308288833444E+04   -0.79945E-04   -0.13190E-03  6912   0.219E-02    0.132E-01
DAV:   3    -0.308288829026E+04    0.44178E-04   -0.11448E-04  6336   0.567E-03    0.868E-02
DAV:   4    -0.308288834253E+04   -0.52274E-04   -0.16403E-04  7104   0.586E-03    0.816E-02
DAV:   5    -0.308288828875E+04    0.53776E-04   -0.28321E-04  7296   0.735E-03    0.342E-02
DAV:   6    -0.308288827942E+04    0.93351E-05   -0.35466E-05  6912   0.288E-03
  68 F= -.31243150E+04 E0= -.31243150E+04  d E =-.335580E-04  mag=    -0.0000
       N       E                     dE             d eps       ncg     rms          rms(c)
DAV:   1    -0.308288837575E+04   -0.86999E-04   -0.51431E-02  5376   0.710E-02    0.621E-02
DAV:   2    -0.308288840200E+04   -0.26242E-04   -0.70635E-04  6528   0.167E-02    0.922E-02
DAV:   3    -0.308288838729E+04    0.14706E-04   -0.27421E-05  6528   0.269E-03    0.730E-02
DAV:   4    -0.308288838560E+04    0.16911E-05   -0.27165E-05  6144   0.237E-03
  69 F= -.31243150E+04 E0= -.31243150E+04  d E =-.763149E-04  mag=     0.0000
       N       E                     dE             d eps       ncg     rms          rms(c)
DAV:   1    -0.308288821637E+04    0.17092E-03   -0.51052E-02  5376   0.676E-02    0.498E-02
DAV:   2    -0.308288825729E+04   -0.40927E-04   -0.63773E-04  6528   0.148E-02    0.663E-02
DAV:   3    -0.308288823575E+04    0.21542E-04   -0.48960E-05  6528   0.383E-03    0.371E-02
DAV:   4    -0.308288824389E+04   -0.81363E-05   -0.39126E-05  6336   0.273E-03
  70 F= -.31243150E+04 E0= -.31243150E+04  d E =0.210222E-04  mag=    -0.0000
       N       E                     dE             d eps       ncg     rms          rms(c)
DAV:   1    -0.308288824070E+04   -0.49531E-05   -0.50526E-02  5568   0.661E-02    0.513E-02
DAV:   2    -0.308288830076E+04   -0.60059E-04   -0.74725E-04  6528   0.134E-02    0.551E-02
DAV:   3    -0.308288828653E+04    0.14232E-04   -0.67237E-05  6720   0.420E-03    0.271E-02
DAV:   4    -0.308288829155E+04   -0.50205E-05   -0.39278E-05  6528   0.278E-03
  71 F= -.31243152E+04 E0= -.31243152E+04  d E =-.136474E-03  mag=     0.0000
       N       E                     dE             d eps       ncg     rms          rms(c)
DAV:   1    -0.308288822139E+04    0.65142E-04   -0.52754E-02  5760   0.632E-02    0.721E-02
DAV:   2    -0.308288827912E+04   -0.57734E-04   -0.14284E-03  6336   0.204E-02    0.127E-01
DAV:   3    -0.308288820262E+04    0.76507E-04   -0.11935E-04  6336   0.587E-03    0.741E-02
DAV:   4    -0.308288820787E+04   -0.52566E-05   -0.56126E-05  6528   0.323E-03
  72 F= -.31243149E+04 E0= -.31243149E+04  d E =0.300601E-03  mag=     0.0000
       N       E                     dE             d eps       ncg     rms          rms(c)
DAV:   1    -0.308288820197E+04    0.64151E-06   -0.56089E-02  6144   0.702E-02    0.104E-01
DAV:   2    -0.308288829751E+04   -0.95531E-04   -0.27082E-03  6528   0.285E-02    0.188E-01
DAV:   3    -0.308288813422E+04    0.16329E-03   -0.24106E-04  6528   0.832E-03    0.112E-01
DAV:   4    -0.308288815119E+04   -0.16974E-04   -0.11363E-04  6336   0.467E-03    0.809E-02
DAV:   5    -0.308288811971E+04    0.31481E-04   -0.26648E-04  7584   0.676E-03    0.445E-02
DAV:   6    -0.308288810254E+04    0.17177E-04   -0.51721E-05  7200   0.350E-03    0.127E-02
DAV:   7    -0.308288810226E+04    0.27090E-06   -0.16760E-06  5760   0.102E-03
  73 F= -.31243149E+04 E0= -.31243149E+04  d E =-.858053E-04  mag=    -0.0000
       N       E                     dE             d eps       ncg     rms          rms(c)
DAV:   1    -0.308288784762E+04    0.25492E-03   -0.51560E-02  5760   0.712E-02    0.596E-02
DAV:   2    -0.308288787082E+04   -0.23197E-04   -0.70707E-04  6336   0.141E-02    0.425E-02
DAV:   3    -0.308288786541E+04    0.54105E-05   -0.55700E-05  6720   0.378E-03
  74 F= -.31243150E+04 E0= -.31243150E+04  d E =-.680442E-04  mag=    -0.0000
       N       E                     dE             d eps       ncg     rms          rms(c)
DAV:   1    -0.308288839419E+04   -0.52337E-03   -0.51521E-02  5760   0.675E-02    0.617E-02
DAV:   2    -0.308288843888E+04   -0.44692E-04   -0.64027E-04  6528   0.129E-02    0.561E-02
DAV:   3    -0.308288843370E+04    0.51865E-05   -0.49992E-05  6528   0.338E-03
  75 F= -.31243150E+04 E0= -.31243150E+04  d E =-.382661E-04  mag=    -0.0000
       N       E                     dE             d eps       ncg     rms          rms(c)
DAV:   1    -0.308288821070E+04    0.22818E-03   -0.51349E-02  5760   0.696E-02    0.632E-02
DAV:   2    -0.308288828166E+04   -0.70963E-04   -0.95659E-04  6528   0.158E-02    0.794E-02
DAV:   3    -0.308288823199E+04    0.49675E-04   -0.19039E-04  6720   0.566E-03    0.465E-02
DAV:   4    -0.308288823647E+04   -0.44809E-05   -0.33191E-05  6720   0.252E-03
  76 F= -.31243149E+04 E0= -.31243149E+04  d E =0.123126E-03  mag=    -0.0000
       N       E                     dE             d eps       ncg     rms          rms(c)
DAV:   1    -0.308288814420E+04    0.87792E-04   -0.25855E-02  5760   0.504E-02    0.554E-02
DAV:   2    -0.308288817730E+04   -0.33101E-04   -0.48268E-04  6528   0.125E-02    0.651E-02
DAV:   3    -0.308288816182E+04    0.15479E-04   -0.42611E-05  6720   0.370E-03    0.349E-02
DAV:   4    -0.308288817009E+04   -0.82707E-05   -0.24854E-05  6528   0.265E-03
  77 F= -.31243151E+04 E0= -.31243151E+04  d E =-.197889E-03  mag=     0.0000
       N       E                     dE             d eps       ncg     rms          rms(c)
DAV:   1    -0.308288816481E+04   -0.29876E-05   -0.41084E-05  6528   0.305E-03    0.147E-02
DAV:   2    -0.308288816871E+04   -0.39008E-05   -0.48702E-05  6720   0.326E-03
  78 F= -.31243151E+04 E0= -.31243151E+04  d E =0.138237E-05  mag=     0.0000
       N       E                     dE             d eps       ncg     rms          rms(c)
DAV:   1    -0.308288816278E+04    0.20279E-05   -0.24230E-05  6528   0.232E-03    0.555E-03
DAV:   2    -0.308288816330E+04   -0.51718E-06   -0.33412E-06  5376   0.106E-03
  79 F= -.31243151E+04 E0= -.31243151E+04  d E =0.541151E-05  mag=    -0.0000
       N       E                     dE             d eps       ncg     rms          rms(c)
DAV:   1    -0.308288816260E+04    0.18039E-06   -0.15306E-07  4608   0.757E-04    0.302E-03
DAV:   2    -0.308288816264E+04   -0.35681E-07    0.24448E-06  4608   0.209E-04
  80 F= -.31243151E+04 E0= -.31243151E+04  d E =0.661879E-06  mag=     0.0000
       N       E                     dE             d eps       ncg     rms          rms(c)
DAV:   1    -0.308288816267E+04   -0.68394E-07    0.23419E-06  4032   0.227E-04    0.271E-03
DAV:   2    -0.308288816275E+04   -0.81316E-07    0.18591E-06  4608   0.382E-04
  81 F= -.31243151E+04 E0= -.31243151E+04  d E =-.114029E-06  mag=    -0.0000
       N       E                     dE             d eps       ncg     rms          rms(c)
DAV:   1    -0.308288816266E+04    0.68685E-08    0.22347E-06  3648   0.272E-04    0.224E-03
DAV:   2    -0.308288816267E+04   -0.92550E-08    0.25936E-06  3648   0.808E-05
  82 F= -.31243151E+04 E0= -.31243151E+04  d E =0.789296E-07  mag=     0.0000
       N       E                     dE             d eps       ncg     rms          rms(c)
DAV:   1    -0.308288816267E+04   -0.89640E-08    0.26043E-06  3648   0.580E-05    0.220E-03
DAV:   2    -0.308288816267E+04   -0.45984E-08    0.26176E-06  3648   0.364E-05
  83 F= -.31243151E+04 E0= -.31243151E+04  d E =-.430737E-08  mag=     0.0000
       N       E                     dE             d eps       ncg     rms          rms(c)
DAV:   1    -0.308288816268E+04   -0.81491E-08    0.26203E-06  3648   0.255E-05    0.219E-03
DAV:   2    -0.308288816268E+04   -0.43074E-08    0.26205E-06  4032   0.267E-05
  84 F= -.31243151E+04 E0= -.31243151E+04  d E =-.785803E-08  mag=     0.0000
       N       E                     dE             d eps       ncg     rms          rms(c)
DAV:   1    -0.308288816269E+04   -0.72177E-08    0.26224E-06  3648   0.165E-05    0.219E-03
DAV:   2    -0.308288816269E+04   -0.22119E-08    0.26227E-06  3648   0.841E-06
  85 F= -.31243151E+04 E0= -.31243151E+04  d E =-.512227E-08  mag=     0.0000
       N       E                     dE             d eps       ncg     rms          rms(c)
DAV:   1    -0.308288816269E+04   -0.15716E-08    0.26236E-06  3648   0.641E-06    0.219E-03
DAV:   2    -0.308288816269E+04   -0.64028E-09    0.26223E-06  3648   0.759E-06
  86 F= -.31243151E+04 E0= -.31243151E+04  d E =0.000000E+00  mag=     0.0000
       N       E                     dE             d eps       ncg     rms          rms(c)
DAV:   1    -0.308288816269E+04   -0.34925E-08    0.26221E-06  3648   0.461E-06    0.219E-03
DAV:   2    -0.308288816269E+04   -0.15716E-08    0.26224E-06  3648   0.298E-06
  87 F= -.31243151E+04 E0= -.31243151E+04  d E =-.442378E-08  mag=     0.0000
       N       E                     dE             d eps       ncg     rms          rms(c)
DAV:   1    -0.308288816270E+04   -0.52969E-08    0.26220E-06  3648   0.333E-06    0.219E-03
DAV:   2    -0.308288816270E+04    0.40745E-09    0.26225E-06  3648   0.419E-06
  88 F= -.31243151E+04 E0= -.31243151E+04  d E =-.331784E-08  mag=     0.0000
       N       E                     dE             d eps       ncg     rms          rms(c)
DAV:   1    -0.308288816270E+04   -0.25029E-08    0.26220E-06  3648   0.274E-06    0.219E-03
DAV:   2    -0.308288816270E+04    0.87311E-09    0.26231E-06  3648   0.143E-06
  89 F= -.31243151E+04 E0= -.31243151E+04  d E =-.203727E-08  mag=    -0.0000
       N       E                     dE             d eps       ncg     rms          rms(c)
DAV:   1    -0.308288816270E+04   -0.98953E-09    0.26231E-06  4128   0.358E-06    0.219E-03
DAV:   2    -0.308288816270E+04   -0.75670E-09    0.26235E-06  3648   0.191E-06
  90 F= -.31243151E+04 E0= -.31243151E+04  d E =-.261934E-08  mag=     0.0000
       N       E                     dE             d eps       ncg     rms          rms(c)
DAV:   1    -0.308288816270E+04    0.15716E-08    0.26232E-06  3648   0.130E-06    0.219E-03
DAV:   2    -0.308288816270E+04   -0.36089E-08    0.26230E-06  3648   0.113E-06
  91 F= -.31243151E+04 E0= -.31243151E+04  d E =-.128057E-08  mag=     0.0000
       N       E                     dE             d eps       ncg     rms          rms(c)
DAV:   1    -0.308288816270E+04   -0.15716E-08    0.26231E-06  3648   0.107E-06    0.219E-03
DAV:   2    -0.308288816270E+04   -0.29104E-09    0.26220E-06  3648   0.113E-06
  92 F= -.31243151E+04 E0= -.31243151E+04  d E =0.174623E-08  mag=     0.0000
       N       E                     dE             d eps       ncg     rms          rms(c)
DAV:   1    -0.308288816270E+04    0.87311E-09    0.26232E-06  3648   0.127E-06    0.219E-03
DAV:   2    -0.308288816269E+04    0.35507E-08    0.26229E-06  3648   0.148E-06
  93 F= -.31243151E+04 E0= -.31243151E+04  d E =0.471482E-08  mag=     0.0000
       N       E                     dE             d eps       ncg     rms          rms(c)
DAV:   1    -0.308288816270E+04    0.98953E-09    0.26232E-06  3648   0.212E-06    0.219E-03
DAV:   2    -0.308288816270E+04    0.75670E-09    0.26239E-06  3648   0.238E-06
  94 F= -.31243151E+04 E0= -.31243151E+04  d E =-.180444E-08  mag=     0.0000
       N       E                     dE             d eps       ncg     rms          rms(c)
DAV:   1    -0.308288816270E+04   -0.22701E-08    0.26236E-06  3648   0.776E-07    0.219E-03
DAV:   2    -0.308288816270E+04    0.20373E-08    0.26243E-06  3648   0.130E-06
  95 F= -.31243151E+04 E0= -.31243151E+04  d E =-.989530E-09  mag=     0.0000
       N       E                     dE             d eps       ncg     rms          rms(c)
DAV:   1    -0.308288816270E+04    0.18044E-08    0.26251E-06  3648   0.184E-06    0.219E-03
DAV:   2    -0.308288816270E+04    0.10477E-08    0.26237E-06  3648   0.217E-06
  96 F= -.31243151E+04 E0= -.31243151E+04  d E =0.814907E-09  mag=     0.0000
       N       E                     dE             d eps       ncg     rms          rms(c)
DAV:   1    -0.308288816269E+04    0.32014E-08    0.26238E-06  3648   0.113E-06    0.219E-03
DAV:   2    -0.308288816270E+04   -0.37835E-08    0.26237E-06  3648   0.132E-06
  97 F= -.31243151E+04 E0= -.31243151E+04  d E =-.162981E-08  mag=     0.0000
