       N       E                     dE             d eps       ncg     rms          rms(c)
DAV:   1     0.182683783839E+05    0.18268E+05   -0.75436E+05  6048   0.101E+03
DAV:   2     0.670447598112E+02   -0.18201E+05   -0.17545E+05  8208   0.266E+02
DAV:   3    -0.297986318165E+04   -0.30469E+04   -0.30297E+04  6912   0.116E+02
DAV:   4    -0.305425093766E+04   -0.74388E+02   -0.74088E+02  7488   0.212E+01
DAV:   5    -0.305551916305E+04   -0.12682E+01   -0.12660E+01  7632   0.261E+00    0.189E+02
DAV:   6    -0.148684630601E+04    0.15687E+04   -0.30774E+03  7056   0.428E+01    0.907E+01
DAV:   7    -0.164383375661E+04   -0.15699E+03   -0.54971E+02  7344   0.146E+01    0.587E+01
DAV:   8    -0.164672943632E+04   -0.28957E+01   -0.11404E+02  6912   0.517E+00    0.452E+01
DAV:   9    -0.177134455495E+04   -0.12462E+03   -0.36159E+01  6912   0.448E+00    0.365E+01
DAV:  10    -0.195705017416E+04   -0.18571E+03   -0.53981E+01  6480   0.516E+00    0.304E+01
DAV:  11    -0.217576096763E+04   -0.21871E+03   -0.75558E+01  6912   0.614E+00    0.254E+01
DAV:  12    -0.244846534107E+04   -0.27270E+03   -0.14073E+02  7200   0.817E+00    0.195E+01
DAV:  13    -0.271517380035E+04   -0.26671E+03   -0.21423E+02  7200   0.910E+00    0.130E+01
DAV:  14    -0.281744359945E+04   -0.10227E+03   -0.72467E+01  7488   0.485E+00    0.972E+00
DAV:  15    -0.284701985178E+04   -0.29576E+02   -0.10397E+01  6912   0.219E+00    0.784E+00
DAV:  16    -0.286206276523E+04   -0.15043E+02   -0.41295E+00  7056   0.145E+00    0.630E+00
DAV:  17    -0.287058780383E+04   -0.85250E+01   -0.21952E+00  7056   0.108E+00    0.502E+00
DAV:  18    -0.287644347004E+04   -0.58557E+01   -0.16830E+00  7056   0.946E-01    0.373E+00
DAV:  19    -0.288067560850E+04   -0.42321E+01   -0.12073E+00  6768   0.768E-01    0.249E+00
DAV:  20    -0.288284153851E+04   -0.21659E+01   -0.47516E-01  6768   0.551E-01    0.143E+00
DAV:  21    -0.288322066881E+04   -0.37913E+00   -0.12253E-01  6768   0.375E-01    0.936E-01
DAV:  22    -0.288493180118E+04   -0.17111E+01   -0.74065E-02  6768   0.295E-01    0.640E-01
DAV:  23    -0.288618614612E+04   -0.12543E+01   -0.32027E-02  6768   0.191E-01    0.446E-01
DAV:  24    -0.288761375680E+04   -0.14276E+01   -0.35607E-02  7056   0.177E-01    0.225E-01
DAV:  25    -0.288816122082E+04   -0.54746E+00   -0.13095E-02  7056   0.122E-01    0.172E-01
DAV:  26    -0.288822256743E+04   -0.61347E-01   -0.31227E-03  7344   0.520E-02    0.150E-01
DAV:  27    -0.288826474254E+04   -0.42175E-01   -0.10633E-03  7344   0.353E-02    0.114E-01
DAV:  28    -0.288842150656E+04   -0.15676E+00   -0.34153E-03  7056   0.584E-02    0.523E-02
DAV:  29    -0.288845077276E+04   -0.29266E-01   -0.11918E-03  7344   0.410E-02    0.400E-02
DAV:  30    -0.288845586812E+04   -0.50954E-02   -0.32725E-04  7344   0.210E-02    0.255E-02
DAV:  31    -0.288845794971E+04   -0.20816E-02   -0.96926E-05  6912   0.101E-02    0.139E-02
DAV:  32    -0.288845972919E+04   -0.17795E-02   -0.55389E-05  6768   0.800E-03    0.727E-03
DAV:  33    -0.288846055236E+04   -0.82317E-03   -0.21283E-05  6336   0.584E-03    0.500E-03
DAV:  34    -0.288846097866E+04   -0.42630E-03   -0.76075E-06  6048   0.373E-03    0.403E-03
DAV:  35    -0.288846132415E+04   -0.34549E-03   -0.34395E-06  5472   0.268E-03    0.307E-03
DAV:  36    -0.288846156558E+04   -0.24143E-03   -0.17667E-06  5184   0.219E-03    0.277E-03
DAV:  37    -0.288846167156E+04   -0.10598E-03    0.99897E-07  5472   0.138E-03    0.252E-03
DAV:  38    -0.288846175234E+04   -0.80778E-04    0.18202E-06  5184   0.978E-04    0.237E-03
DAV:  39    -0.288846178892E+04   -0.36580E-04    0.24533E-06  5184   0.580E-04    0.233E-03
DAV:  40    -0.288846180241E+04   -0.13484E-04    0.27183E-06  5328   0.377E-04    0.229E-03
DAV:  41    -0.288846180922E+04   -0.68167E-05    0.28133E-06  5184   0.243E-04
   1 F= -.29230629E+04 E0= -.29230629E+04  d E =-.292306E+04  mag=     4.0000
       N       E                     dE             d eps       ncg     rms          rms(c)
DAV:   1    -0.288846155849E+04    0.24392E-03   -0.13512E-01  6048   0.102E-01    0.700E-02
DAV:   2    -0.288846151682E+04    0.41665E-04   -0.74072E-04  6192   0.790E-03    0.364E-02
DAV:   3    -0.288846153243E+04   -0.15606E-04   -0.31941E-05  6192   0.278E-03    0.160E-02
DAV:   4    -0.288846156845E+04   -0.36027E-04   -0.72011E-06  5904   0.165E-03    0.538E-03
DAV:   5    -0.288846157164E+04   -0.31848E-05    0.15127E-06  5760   0.625E-04
   2 F= -.29230627E+04 E0= -.29230627E+04  d E =0.226204E-03  mag=     4.0000
       N       E                     dE             d eps       ncg     rms          rms(c)
DAV:   1    -0.288846134991E+04    0.21855E-03   -0.27656E-01  6336   0.156E-01    0.130E-01
DAV:   2    -0.288846122690E+04    0.12301E-03   -0.17337E-03  6480   0.133E-02    0.629E-02
DAV:   3    -0.288846117839E+04    0.48513E-04   -0.14019E-04  6336   0.626E-03    0.287E-02
DAV:   4    -0.288846122839E+04   -0.49999E-04   -0.28262E-05  6192   0.323E-03    0.115E-02
DAV:   5    -0.288846123953E+04   -0.11145E-04   -0.34711E-06  5760   0.139E-03    0.580E-03
DAV:   6    -0.288846125141E+04   -0.11882E-04   -0.52811E-07  5472   0.734E-04    0.420E-03
DAV:   7    -0.288846125702E+04   -0.56069E-05    0.19205E-06  5040   0.358E-04
   3 F= -.29230623E+04 E0= -.29230623E+04  d E =0.347249E-03  mag=     4.0000
       N       E                     dE             d eps       ncg     rms          rms(c)
DAV:   1    -0.288846129778E+04   -0.46367E-04   -0.27619E-01  6336   0.149E-01    0.660E-02
DAV:   2    -0.288846129630E+04    0.14819E-05   -0.86156E-04  6336   0.861E-03    0.361E-02
DAV:   3    -0.288846132489E+04   -0.28596E-04   -0.25513E-05  6192   0.247E-03    0.182E-02
DAV:   4    -0.288846134826E+04   -0.23363E-04   -0.86819E-06  6048   0.155E-03    0.524E-03
DAV:   5    -0.288846135168E+04   -0.34248E-05    0.11291E-06  5760   0.537E-04
   4 F= -.29230624E+04 E0= -.29230624E+04  d E =-.507806E-04  mag=     4.0000
       N       E                     dE             d eps       ncg     rms          rms(c)
DAV:   1    -0.288846165004E+04   -0.30178E-03   -0.21425E-01  6336   0.129E-01    0.108E-01
DAV:   2    -0.288846181109E+04   -0.16105E-03   -0.17040E-03  6624   0.128E-02    0.514E-02
DAV:   3    -0.288846180137E+04    0.97218E-05   -0.60041E-05  6624   0.382E-03
   5 F= -.29230628E+04 E0= -.29230628E+04  d E =-.422135E-03  mag=     4.0000
       N       E                     dE             d eps       ncg     rms          rms(c)
DAV:   1    -0.288846118480E+04    0.62629E-03   -0.15538E-01  6336   0.581E-02    0.134E-01
DAV:   2    -0.288846103504E+04    0.14976E-03   -0.10044E-03  6336   0.976E-03    0.570E-02
DAV:   3    -0.288846145230E+04   -0.41726E-03   -0.21557E-04  6192   0.444E-03    0.313E-02
DAV:   4    -0.288846156963E+04   -0.11733E-03   -0.45182E-05  5904   0.207E-03    0.143E-02
DAV:   5    -0.288846162572E+04   -0.56098E-04   -0.50422E-06  5616   0.119E-03    0.495E-03
DAV:   6    -0.288846166814E+04   -0.42416E-04   -0.44118E-07  5472   0.773E-04    0.352E-03
DAV:   7    -0.288846168725E+04   -0.19111E-04    0.19878E-06  5328   0.352E-04    0.335E-03
DAV:   8    -0.288846170342E+04   -0.16164E-04    0.25946E-06  5040   0.221E-04    0.286E-03
DAV:   9    -0.288846172754E+04   -0.24124E-04    0.24627E-06  5184   0.330E-04    0.237E-03
DAV:  10    -0.288846173267E+04   -0.51287E-05    0.27515E-06  5616   0.169E-04
   6 F= -.29230628E+04 E0= -.29230628E+04  d E =0.172814E-04  mag=     4.0000
       N       E                     dE             d eps       ncg     rms          rms(c)
DAV:   1    -0.288846176885E+04   -0.41306E-04   -0.16175E-01  6336   0.551E-02    0.106E-01
DAV:   2    -0.288846198507E+04   -0.21622E-03   -0.56152E-04  6480   0.669E-03    0.494E-02
DAV:   3    -0.288846198897E+04   -0.38954E-05   -0.63739E-05  6624   0.252E-03
   7 F= -.29230626E+04 E0= -.29230626E+04  d E =0.141147E-03  mag=     4.0000
       N       E                     dE             d eps       ncg     rms          rms(c)
DAV:   1    -0.288846121156E+04    0.77351E-03   -0.12332E-01  6480   0.858E-02    0.103E-01
DAV:   2    -0.288846127550E+04   -0.63943E-04   -0.80710E-04  6624   0.986E-03    0.551E-02
DAV:   3    -0.288846141609E+04   -0.14059E-03   -0.71622E-05  6480   0.327E-03    0.318E-02
DAV:   4    -0.288846146544E+04   -0.49352E-04   -0.25944E-05  5904   0.218E-03    0.122E-02
DAV:   5    -0.288846151765E+04   -0.52213E-04   -0.30016E-06  5904   0.109E-03    0.575E-03
DAV:   6    -0.288846155053E+04   -0.32879E-04    0.51232E-07  5472   0.552E-04    0.442E-03
DAV:   7    -0.288846156613E+04   -0.15601E-04    0.23535E-06  5040   0.273E-04    0.353E-03
DAV:   8    -0.288846158341E+04   -0.17274E-04    0.24341E-06  5040   0.378E-04    0.243E-03
DAV:   9    -0.288846158522E+04   -0.18109E-05    0.25909E-06  5040   0.179E-04
   8 F= -.29230627E+04 E0= -.29230627E+04  d E =-.405791E-04  mag=     4.0000
       N       E                     dE             d eps       ncg     rms          rms(c)
DAV:   1    -0.288846133481E+04    0.24860E-03   -0.11217E-01  6336   0.113E-01    0.130E-01
DAV:   2    -0.288846127283E+04    0.61983E-04   -0.10180E-03  6480   0.133E-02    0.876E-02
DAV:   3    -0.288846120893E+04    0.63900E-04   -0.13935E-04  6480   0.722E-03    0.430E-02
DAV:   4    -0.288846118761E+04    0.21316E-04   -0.54174E-05  6048   0.438E-03    0.140E-02
DAV:   5    -0.288846119472E+04   -0.71119E-05   -0.94627E-06  5760   0.163E-03
   9 F= -.29230623E+04 E0= -.29230623E+04  d E =0.405045E-03  mag=     4.0000
       N       E                     dE             d eps       ncg     rms          rms(c)
DAV:   1    -0.288846129604E+04   -0.10843E-03   -0.10037E-01  6048   0.891E-02    0.686E-02
DAV:   2    -0.288846135444E+04   -0.58402E-04   -0.55345E-04  6480   0.694E-03    0.434E-02
DAV:   3    -0.288846134690E+04    0.75425E-05   -0.59337E-05  6336   0.379E-03
  10 F= -.29230623E+04 E0= -.29230623E+04  d E =-.342505E-04  mag=     4.0000
