 Entering Gaussian System, Link 0=/apps/GAU16/avx2/g16/g16
 Initial command:
 /apps/GAU16/avx2/g16/l1.exe "/localscratch/chesha/scratch/Gau-211955.inp" -scrdir="/localscratch/chesha/scratch/"
 Entering Link 1 = /apps/GAU16/avx2/g16/l1.exe PID=    211959.
  
 Copyright (c) 1988-2019, Gaussian, Inc.  All Rights Reserved.
  
 This is part of the Gaussian(R) 16 program.  It is based on
 the Gaussian(R) 09 system (copyright 2009, Gaussian, Inc.),
 the Gaussian(R) 03 system (copyright 2003, Gaussian, Inc.),
 the Gaussian(R) 98 system (copyright 1998, Gaussian, Inc.),
 the Gaussian(R) 94 system (copyright 1995, Gaussian, Inc.),
 the Gaussian 92(TM) system (copyright 1992, Gaussian, Inc.),
 the Gaussian 90(TM) system (copyright 1990, Gaussian, Inc.),
 the Gaussian 88(TM) system (copyright 1988, Gaussian, Inc.),
 the Gaussian 86(TM) system (copyright 1986, Carnegie Mellon
 University), and the Gaussian 82(TM) system (copyright 1983,
 Carnegie Mellon University). Gaussian is a federally registered
 trademark of Gaussian, Inc.
  
 This software contains proprietary and confidential information,
 including trade secrets, belonging to Gaussian, Inc.
  
 This software is provided under written license and may be
 used, copied, transmitted, or stored only in accord with that
 written license.
  
 The following legend is applicable only to US Government
 contracts under FAR:
  
                    RESTRICTED RIGHTS LEGEND
  
 Use, reproduction and disclosure by the US Government is
 subject to restrictions as set forth in subparagraphs (a)
 and (c) of the Commercial Computer Software - Restricted
 Rights clause in FAR 52.227-19.
  
 Gaussian, Inc.
 340 Quinnipiac St., Bldg. 40, Wallingford CT 06492
  
  
 ---------------------------------------------------------------
 Warning -- This program may not be used in any manner that
 competes with the business of Gaussian, Inc. or will provide
 assistance to any competitor of Gaussian, Inc.  The licensee
 of this program is prohibited from giving any competitor of
 Gaussian, Inc. access to this program.  By using this program,
 the user acknowledges that Gaussian, Inc. is engaged in the
 business of creating and licensing software in the field of
 computational chemistry and represents and warrants to the
 licensee that it is not a competitor of Gaussian, Inc. and that
 it will not use this program in any manner prohibited above.
 ---------------------------------------------------------------
  

 Cite this work as:
 Gaussian 16, Revision C.01,
 M. J. Frisch, G. W. Trucks, H. B. Schlegel, G. E. Scuseria, 
 M. A. Robb, J. R. Cheeseman, G. Scalmani, V. Barone, 
 G. A. Petersson, H. Nakatsuji, X. Li, M. Caricato, A. V. Marenich, 
 J. Bloino, B. G. Janesko, R. Gomperts, B. Mennucci, H. P. Hratchian, 
 J. V. Ortiz, A. F. Izmaylov, J. L. Sonnenberg, D. Williams-Young, 
 F. Ding, F. Lipparini, F. Egidi, J. Goings, B. Peng, A. Petrone, 
 T. Henderson, D. Ranasinghe, V. G. Zakrzewski, J. Gao, N. Rega, 
 G. Zheng, W. Liang, M. Hada, M. Ehara, K. Toyota, R. Fukuda, 
 J. Hasegawa, M. Ishida, T. Nakajima, Y. Honda, O. Kitao, H. Nakai, 
 T. Vreven, K. Throssell, J. A. Montgomery, Jr., J. E. Peralta, 
 F. Ogliaro, M. J. Bearpark, J. J. Heyd, E. N. Brothers, K. N. Kudin, 
 V. N. Staroverov, T. A. Keith, R. Kobayashi, J. Normand, 
 K. Raghavachari, A. P. Rendell, J. C. Burant, S. S. Iyengar, 
 J. Tomasi, M. Cossi, J. M. Millam, M. Klene, C. Adamo, R. Cammi, 
 J. W. Ochterski, R. L. Martin, K. Morokuma, O. Farkas, 
 J. B. Foresman, and D. J. Fox, Gaussian, Inc., Wallingford CT, 2019.
 
 ******************************************
 Gaussian 16:  ES64L-G16RevC.01  3-Jul-2019
                13-Feb-2023 
 ******************************************
 %nprocshared=48
 Will use up to   48 processors via shared memory.
 %chk=Mo19S42_f_H2S.chk
 %mem=100GB
 ---------------------------------------------------------
 # opt freq b3lyp/gen nosymm pseudo=read scf=maxcycles=500
 ---------------------------------------------------------
 1/18=20,19=15,26=3,38=1/1,3;
 2/9=110,12=2,15=1,17=6,18=5,40=1/2;
 3/5=7,11=2,16=1,17=8,25=1,30=1,71=1,74=-5/1,2,3;
 4//1;
 5/5=2,7=500,38=5/2;
 6/7=2,8=2,9=2,10=2,28=1/1;
 7/30=1/1,2,3,16;
 1/18=20,19=15,26=3/3(2);
 2/9=110,15=1/2;
 99//99;
 2/9=110,15=1/2;
 3/5=7,6=1,11=2,16=1,17=8,25=1,30=1,71=1,74=-5,82=7/1,2,3;
 4/5=5,16=3,69=1/1;
 5/5=2,7=500,38=5/2;
 7/30=1/1,2,3,16;
 1/18=20,19=15,26=3/3(-5);
 2/9=110,15=1/2;
 6/7=2,8=2,9=2,10=2,19=2,28=1/1;
 99/9=1/99;
 -------------------
 Title Card Required
 -------------------
 Symbolic Z-matrix:
 Charge =  0 Multiplicity = 1
 42                    0.20044   1.3081    12.69008 
 16                    2.22144   2.2079    13.74501 
 16                   -0.85978   2.06607   14.89163 
 16                   -0.58137   0.96304   10.4197 
 16                    1.82638  -0.44028   12.0833 
 42                   -2.12905   2.69165   11.10454 
 16                   -2.99048   2.4829    8.80046 
 16                   -0.16446   3.61821   12.14528 
 42                    0.85801   2.89847   10.04351 
 16                    0.03742   2.63919   7.74718 
 16                    2.49987   1.17881   9.41544 
 42                    3.28762   1.45558   11.69635 
 42                   -1.53288   4.38454   8.41397 
 16                    5.39126   2.35191   12.87564 
 16                    2.89381   3.77281   11.10884 
 16                   -2.45588   5.05346   10.56328 
 16                    1.2428    6.91081   6.64715 
 42                   -4.43176   4.22717   9.5692 
 16                   -5.95833   2.24703   9.76814 
 16                   -5.52351   4.8229    11.499 
 42                    2.44008  -0.08377   14.37287 
 16                    4.54965  -1.13926   14.73228 
 16                    1.55589   0.67827   16.39463 
 42                    1.48296   4.54035   7.40953 
 16                    0.64465   4.28814   5.03346 
 16                    0.46934   5.24956   9.47033 
 42                    3.93385   3.09565   9.02225 
 16                    3.14543   2.84205   6.74585 
 16                    3.46788   5.42591   8.52025 
 42                    4.49311   4.80723   6.47837 
 16                    6.68217   4.09152   6.05362 
 16                    4.26768   6.99226   5.8176 
 42                    2.32604   5.96801   4.61142 
 16                    3.84472   4.37348   4.10899 
 16                   -1.21166   7.22696   4.07261 
 42                   -0.89884   6.04199   5.79431 
 16                   -2.44629   4.15831   5.95276 
 16                   -1.87868   6.88551   7.86078 
 42                   -3.70681   5.95958   6.71384 
 16                   -5.58319   5.08361   7.74417 
 16                   -4.40556   7.19454   5.15087 
 42                   -5.27434   2.35754   11.90921 
 16                   -3.37163   3.30111   13.20263 
 16                   -3.59837   0.6681    11.58095 
 42                   -2.72809   0.99181   13.88193 
 16                   -1.25279  -0.73222   13.16262 
 16                   -4.22031   0.34286   15.22801 
 42                   -0.46969  -0.27289   15.40955 
 16                    1.13389  -1.98398   14.74629 
 16                   -1.46015  -1.16156   17.05597 
 42                    5.69623   0.05275   13.19233 
 16                    5.00118  -0.40974   11.03573 
 16                    8.29381   1.233     10.94095 
 42                    6.24749   1.71305   10.63946 
 16                    5.68643   1.26565   8.28628 
 16                    6.05345   4.09119   10.09017 
 42                    6.97752   3.18434   8.13492 
 16                    9.05925   2.82552   8.29638 
 16                    2.12529   7.05673   2.80224 
 16                    7.74821  -0.4214    13.49822 
 16                   -6.93567   1.71528   13.05542 
 16                   -5.33984   7.55259   7.94007 
 1                    -6.55775   7.33862   7.45036 
 1                    -5.32046   8.75284   7.36742 
 

 GradGradGradGradGradGradGradGradGradGradGradGradGradGradGradGradGradGrad
 Berny optimization.
 Initialization pass.
                           ----------------------------
                           !    Initial Parameters    !
                           ! (Angstroms and Degrees)  !
 --------------------------                            --------------------------
 ! Name  Definition              Value          Derivative Info.                !
 --------------------------------------------------------------------------------
 ! R1    R(1,2)                  2.4509         estimate D2E/DX2                !
 ! R2    R(1,3)                  2.5584         estimate D2E/DX2                !
 ! R3    R(1,4)                  2.4259         estimate D2E/DX2                !
 ! R4    R(1,5)                  2.4635         estimate D2E/DX2                !
 ! R5    R(1,8)                  2.4014         estimate D2E/DX2                !
 ! R6    R(1,46)                 2.5491         estimate D2E/DX2                !
 ! R7    R(2,12)                 2.4289         estimate D2E/DX2                !
 ! R8    R(2,21)                 2.3862         estimate D2E/DX2                !
 ! R9    R(3,45)                 2.3799         estimate D2E/DX2                !
 ! R10   R(3,48)                 2.4272         estimate D2E/DX2                !
 ! R11   R(4,6)                  2.4192         estimate D2E/DX2                !
 ! R12   R(4,9)                  2.4411         estimate D2E/DX2                !
 ! R13   R(5,12)                 2.4247         estimate D2E/DX2                !
 ! R14   R(5,21)                 2.3971         estimate D2E/DX2                !
 ! R15   R(6,7)                  2.4687         estimate D2E/DX2                !
 ! R16   R(6,8)                  2.4086         estimate D2E/DX2                !
 ! R17   R(6,16)                 2.445          estimate D2E/DX2                !
 ! R18   R(6,43)                 2.5135         estimate D2E/DX2                !
 ! R19   R(6,44)                 2.5457         estimate D2E/DX2                !
 ! R20   R(7,13)                 2.427          estimate D2E/DX2                !
 ! R21   R(7,18)                 2.3897         estimate D2E/DX2                !
 ! R22   R(8,9)                  2.4456         estimate D2E/DX2                !
 ! R23   R(9,10)                 2.4523         estimate D2E/DX2                !
 ! R24   R(9,11)                 2.4591         estimate D2E/DX2                !
 ! R25   R(9,15)                 2.4584         estimate D2E/DX2                !
 ! R26   R(9,26)                 2.451          estimate D2E/DX2                !
 ! R27   R(10,13)                2.4406         estimate D2E/DX2                !
 ! R28   R(10,24)                2.412          estimate D2E/DX2                !
 ! R29   R(11,12)                2.4289         estimate D2E/DX2                !
 ! R30   R(11,27)                2.4259         estimate D2E/DX2                !
 ! R31   R(12,14)                2.5728         estimate D2E/DX2                !
 ! R32   R(12,15)                2.4228         estimate D2E/DX2                !
 ! R33   R(12,52)                2.6177         estimate D2E/DX2                !
 ! R34   R(13,16)                2.4329         estimate D2E/DX2                !
 ! R35   R(13,26)                2.4234         estimate D2E/DX2                !
 ! R36   R(13,37)                2.635          estimate D2E/DX2                !
 ! R37   R(13,38)                2.5847         estimate D2E/DX2                !
 ! R38   R(14,51)                2.3408         estimate D2E/DX2                !
 ! R39   R(14,54)                2.4783         estimate D2E/DX2                !
 ! R40   R(15,27)                2.4278         estimate D2E/DX2                !
 ! R41   R(16,18)                2.3612         estimate D2E/DX2                !
 ! R42   R(17,24)                2.5016         estimate D2E/DX2                !
 ! R43   R(17,33)                2.4913         estimate D2E/DX2                !
 ! R44   R(17,36)                2.4635         estimate D2E/DX2                !
 ! R45   R(18,19)                2.5082         estimate D2E/DX2                !
 ! R46   R(18,20)                2.2959         estimate D2E/DX2                !
 ! R47   R(18,40)                2.3216         estimate D2E/DX2                !
 ! R48   R(18,42)                3.1115         estimate D2E/DX2                !
 ! R49   R(19,42)                2.2504         estimate D2E/DX2                !
 ! R50   R(20,42)                2.5116         estimate D2E/DX2                !
 ! R51   R(21,22)                2.3861         estimate D2E/DX2                !
 ! R52   R(21,23)                2.3345         estimate D2E/DX2                !
 ! R53   R(21,48)                3.0947         estimate D2E/DX2                !
 ! R54   R(21,49)                2.3359         estimate D2E/DX2                !
 ! R55   R(22,51)                2.2599         estimate D2E/DX2                !
 ! R56   R(23,48)                2.445          estimate D2E/DX2                !
 ! R57   R(24,25)                2.5322         estimate D2E/DX2                !
 ! R58   R(24,26)                2.4036         estimate D2E/DX2                !
 ! R59   R(24,28)                2.4675         estimate D2E/DX2                !
 ! R60   R(24,29)                2.4409         estimate D2E/DX2                !
 ! R61   R(25,33)                2.4139         estimate D2E/DX2                !
 ! R62   R(25,36)                2.4571         estimate D2E/DX2                !
 ! R63   R(27,28)                2.4224         estimate D2E/DX2                !
 ! R64   R(27,29)                2.4288         estimate D2E/DX2                !
 ! R65   R(27,30)                3.1167         estimate D2E/DX2                !
 ! R66   R(27,55)                2.6386         estimate D2E/DX2                !
 ! R67   R(27,56)                2.5738         estimate D2E/DX2                !
 ! R68   R(28,30)                2.3979         estimate D2E/DX2                !
 ! R69   R(29,30)                2.3671         estimate D2E/DX2                !
 ! R70   R(30,31)                2.3419         estimate D2E/DX2                !
 ! R71   R(30,32)                2.2939         estimate D2E/DX2                !
 ! R72   R(30,33)                3.0869         estimate D2E/DX2                !
 ! R73   R(30,34)                2.4945         estimate D2E/DX2                !
 ! R74   R(31,57)                2.2895         estimate D2E/DX2                !
 ! R75   R(32,33)                2.5048         estimate D2E/DX2                !
 ! R76   R(33,34)                2.2586         estimate D2E/DX2                !
 ! R77   R(33,59)                2.121          estimate D2E/DX2                !
 ! R78   R(35,36)                2.1134         estimate D2E/DX2                !
 ! R79   R(36,37)                2.4429         estimate D2E/DX2                !
 ! R80   R(36,38)                2.4376         estimate D2E/DX2                !
 ! R81   R(36,39)                2.9558         estimate D2E/DX2                !
 ! R82   R(37,39)                2.3265         estimate D2E/DX2                !
 ! R83   R(38,39)                2.3484         estimate D2E/DX2                !
 ! R84   R(39,40)                2.3129         estimate D2E/DX2                !
 ! R85   R(39,41)                2.111          estimate D2E/DX2                !
 ! R86   R(39,62)                2.59           estimate D2E/DX2                !
 ! R87   R(42,43)                2.4867         estimate D2E/DX2                !
 ! R88   R(42,44)                2.4023         estimate D2E/DX2                !
 ! R89   R(42,61)                2.1181         estimate D2E/DX2                !
 ! R90   R(43,45)                2.4917         estimate D2E/DX2                !
 ! R91   R(44,45)                2.4813         estimate D2E/DX2                !
 ! R92   R(45,46)                2.3804         estimate D2E/DX2                !
 ! R93   R(45,47)                2.1118         estimate D2E/DX2                !
 ! R94   R(45,48)                3.0056         estimate D2E/DX2                !
 ! R95   R(46,48)                2.4234         estimate D2E/DX2                !
 ! R96   R(48,49)                2.4371         estimate D2E/DX2                !
 ! R97   R(48,50)                2.1169         estimate D2E/DX2                !
 ! R98   R(51,52)                2.3126         estimate D2E/DX2                !
 ! R99   R(51,54)                3.0948         estimate D2E/DX2                !
 ! R100  R(51,60)                2.1281         estimate D2E/DX2                !
 ! R101  R(52,54)                2.4933         estimate D2E/DX2                !
 ! R102  R(53,54)                2.1234         estimate D2E/DX2                !
 ! R103  R(54,55)                2.4602         estimate D2E/DX2                !
 ! R104  R(54,56)                2.4484         estimate D2E/DX2                !
 ! R105  R(54,57)                2.9951         estimate D2E/DX2                !
 ! R106  R(55,57)                2.3176         estimate D2E/DX2                !
 ! R107  R(56,57)                2.3451         estimate D2E/DX2                !
 ! R108  R(57,58)                2.1186         estimate D2E/DX2                !
 ! R109  R(62,63)                1.33           estimate D2E/DX2                !
 ! R110  R(62,64)                1.33           estimate D2E/DX2                !
 ! A1    A(2,1,3)               82.1003         estimate D2E/DX2                !
 ! A2    A(2,1,4)              136.1205         estimate D2E/DX2                !
 ! A3    A(2,1,5)               79.766          estimate D2E/DX2                !
 ! A4    A(2,1,8)               82.5173         estimate D2E/DX2                !
 ! A5    A(2,1,46)             133.1689         estimate D2E/DX2                !
 ! A6    A(3,1,4)              135.557          estimate D2E/DX2                !
 ! A7    A(3,1,5)              134.0862         estimate D2E/DX2                !
 ! A8    A(3,1,8)               81.2135         estimate D2E/DX2                !
 ! A9    A(3,1,46)              80.8725         estimate D2E/DX2                !
 ! A10   A(4,1,5)               83.1791         estimate D2E/DX2                !
 ! A11   A(4,1,8)               82.8501         estimate D2E/DX2                !
 ! A12   A(4,1,46)              82.8721         estimate D2E/DX2                !
 ! A13   A(5,1,8)              136.6489         estimate D2E/DX2                !
 ! A14   A(5,1,46)              81.5973         estimate D2E/DX2                !
 ! A15   A(8,1,46)             136.5029         estimate D2E/DX2                !
 ! A16   A(1,2,12)              83.4082         estimate D2E/DX2                !
 ! A17   A(1,2,21)              80.5736         estimate D2E/DX2                !
 ! A18   A(12,2,21)             83.3527         estimate D2E/DX2                !
 ! A19   A(1,3,45)              80.0094         estimate D2E/DX2                !
 ! A20   A(1,3,48)              80.3006         estimate D2E/DX2                !
 ! A21   A(1,4,6)               80.77           estimate D2E/DX2                !
 ! A22   A(1,4,9)               80.8761         estimate D2E/DX2                !
 ! A23   A(6,4,9)               81.6239         estimate D2E/DX2                !
 ! A24   A(1,5,12)              83.2315         estimate D2E/DX2                !
 ! A25   A(1,5,21)              80.105          estimate D2E/DX2                !
 ! A26   A(12,5,21)             83.2144         estimate D2E/DX2                !
 ! A27   A(4,6,7)               84.1808         estimate D2E/DX2                !
 ! A28   A(4,6,8)               82.8409         estimate D2E/DX2                !
 ! A29   A(4,6,16)             135.4867         estimate D2E/DX2                !
 ! A30   A(4,6,43)             136.5391         estimate D2E/DX2                !
 ! A31   A(4,6,44)              81.6192         estimate D2E/DX2                !
 ! A32   A(7,6,8)              136.0903         estimate D2E/DX2                !
 ! A33   A(7,6,16)              80.1204         estimate D2E/DX2                !
 ! A34   A(7,6,43)             128.8352         estimate D2E/DX2                !
 ! A35   A(7,6,44)              84.6092         estimate D2E/DX2                !
 ! A36   A(8,6,16)              80.3913         estimate D2E/DX2                !
 ! A37   A(8,6,43)              87.092          estimate D2E/DX2                !
 ! A38   A(8,6,44)             134.0831         estimate D2E/DX2                !
 ! A39   A(16,6,43)             83.3663         estimate D2E/DX2                !
 ! A40   A(16,6,44)            137.0648         estimate D2E/DX2                !
 ! A41   A(43,6,44)             75.5926         estimate D2E/DX2                !
 ! A42   A(6,7,13)              82.6925         estimate D2E/DX2                !
 ! A43   A(6,7,18)              81.2859         estimate D2E/DX2                !
 ! A44   A(13,7,18)             80.8823         estimate D2E/DX2                !
 ! A45   A(1,8,6)               81.4832         estimate D2E/DX2                !
 ! A46   A(1,8,9)               81.2762         estimate D2E/DX2                !
 ! A47   A(6,8,9)               81.7468         estimate D2E/DX2                !
 ! A48   A(4,9,8)               81.6266         estimate D2E/DX2                !
 ! A49   A(4,9,10)              82.136          estimate D2E/DX2                !
 ! A50   A(4,9,11)              83.0273         estimate D2E/DX2                !
 ! A51   A(4,9,15)             134.7051         estimate D2E/DX2                !
 ! A52   A(4,9,26)             134.6735         estimate D2E/DX2                !
 ! A53   A(8,9,10)             134.1047         estimate D2E/DX2                !
 ! A54   A(8,9,11)             134.7839         estimate D2E/DX2                !
 ! A55   A(8,9,15)              82.4802         estimate D2E/DX2                !
 ! A56   A(8,9,26)              81.5107         estimate D2E/DX2                !
 ! A57   A(10,9,11)             84.8546         estimate D2E/DX2                !
 ! A58   A(10,9,15)            136.0938         estimate D2E/DX2                !
 ! A59   A(10,9,26)             80.1755         estimate D2E/DX2                !
 ! A60   A(11,9,15)             78.8429         estimate D2E/DX2                !
 ! A61   A(11,9,26)            135.8026         estimate D2E/DX2                !
 ! A62   A(15,9,26)             83.7712         estimate D2E/DX2                !
 ! A63   A(9,10,13)             83.3305         estimate D2E/DX2                !
 ! A64   A(9,10,24)             81.2114         estimate D2E/DX2                !
 ! A65   A(13,10,24)            81.9626         estimate D2E/DX2                !
 ! A66   A(9,11,12)             84.0888         estimate D2E/DX2                !
 ! A67   A(9,11,27)             83.3103         estimate D2E/DX2                !
 ! A68   A(12,11,27)            82.5569         estimate D2E/DX2                !
 ! A69   A(2,12,5)              80.97           estimate D2E/DX2                !
 ! A70   A(2,12,11)            133.2336         estimate D2E/DX2                !
 ! A71   A(2,12,14)             82.2063         estimate D2E/DX2                !
 ! A72   A(2,12,15)             80.6156         estimate D2E/DX2                !
 ! A73   A(2,12,52)            136.1301         estimate D2E/DX2                !
 ! A74   A(5,12,11)             82.2595         estimate D2E/DX2                !
 ! A75   A(5,12,14)            133.7884         estimate D2E/DX2                !
 ! A76   A(5,12,15)            133.517          estimate D2E/DX2                !
 ! A77   A(5,12,52)             82.9698         estimate D2E/DX2                !
 ! A78   A(11,12,14)           137.3329         estimate D2E/DX2                !
 ! A79   A(11,12,15)            80.1277         estimate D2E/DX2                !
 ! A80   A(11,12,52)            83.9218         estimate D2E/DX2                !
 ! A81   A(14,12,15)            84.8852         estimate D2E/DX2                !
 ! A82   A(14,12,52)            80.1362         estimate D2E/DX2                !
 ! A83   A(15,12,52)           136.615          estimate D2E/DX2                !
 ! A84   A(7,13,10)             82.507          estimate D2E/DX2                !
 ! A85   A(7,13,16)             81.193          estimate D2E/DX2                !
 ! A86   A(7,13,26)            134.9475         estimate D2E/DX2                !
 ! A87   A(7,13,37)             82.72           estimate D2E/DX2                !
 ! A88   A(7,13,38)            135.3899         estimate D2E/DX2                !
 ! A89   A(10,13,16)           133.0062         estimate D2E/DX2                !
 ! A90   A(10,13,26)            80.954          estimate D2E/DX2                !
 ! A91   A(10,13,37)            84.6321         estimate D2E/DX2                !
 ! A92   A(10,13,38)           136.0195         estimate D2E/DX2                !
 ! A93   A(16,13,26)            80.2248         estimate D2E/DX2                !
 ! A94   A(16,13,37)           135.8301         estimate D2E/DX2                !
 ! A95   A(16,13,38)            82.6619         estimate D2E/DX2                !
 ! A96   A(26,13,37)           136.4019         estimate D2E/DX2                !
 ! A97   A(26,13,38)            81.8624         estimate D2E/DX2                !
 ! A98   A(37,13,38)            80.6064         estimate D2E/DX2                !
 ! A99   A(12,14,51)            80.0001         estimate D2E/DX2                !
 ! A100  A(12,14,54)            77.2377         estimate D2E/DX2                !
 ! A101  A(9,15,12)             84.2338         estimate D2E/DX2                !
 ! A102  A(9,15,27)             83.2874         estimate D2E/DX2                !
 ! A103  A(12,15,27)            82.6467         estimate D2E/DX2                !
 ! A104  A(6,16,13)             83.0654         estimate D2E/DX2                !
 ! A105  A(6,16,18)             82.358          estimate D2E/DX2                !
 ! A106  A(13,16,18)            81.3337         estimate D2E/DX2                !
 ! A107  A(24,17,33)            81.2967         estimate D2E/DX2                !
 ! A108  A(24,17,36)            81.6495         estimate D2E/DX2                !
 ! A109  A(33,17,36)            87.8021         estimate D2E/DX2                !
 ! A110  A(7,18,16)             83.4634         estimate D2E/DX2                !
 ! A111  A(7,18,19)             79.4175         estimate D2E/DX2                !
 ! A112  A(7,18,20)            138.2962         estimate D2E/DX2                !
 ! A113  A(7,18,40)            108.3911         estimate D2E/DX2                !
 ! A114  A(7,18,42)             88.0895         estimate D2E/DX2                !
 ! A115  A(16,18,19)           138.782          estimate D2E/DX2                !
 ! A116  A(16,18,20)            87.3203         estimate D2E/DX2                !
 ! A117  A(16,18,40)           128.0898         estimate D2E/DX2                !
 ! A118  A(16,18,42)            96.9075         estimate D2E/DX2                !
 ! A119  A(19,18,20)            81.3009         estimate D2E/DX2                !
 ! A120  A(19,18,40)            92.9648         estimate D2E/DX2                !
 ! A121  A(20,18,40)           109.22           estimate D2E/DX2                !
 ! A122  A(40,18,42)           132.7303         estimate D2E/DX2                !
 ! A123  A(2,21,5)              82.418          estimate D2E/DX2                !
 ! A124  A(2,21,22)            123.0569         estimate D2E/DX2                !
 ! A125  A(2,21,23)             83.089          estimate D2E/DX2                !
 ! A126  A(2,21,48)             93.4789         estimate D2E/DX2                !
 ! A127  A(2,21,49)            140.5429         estimate D2E/DX2                !
 ! A128  A(5,21,22)            107.7241         estimate D2E/DX2                !
 ! A129  A(5,21,23)            141.1485         estimate D2E/DX2                !
 ! A130  A(5,21,48)             94.0227         estimate D2E/DX2                !
 ! A131  A(5,21,49)             83.6007         estimate D2E/DX2                !
 ! A132  A(22,21,23)           110.4137         estimate D2E/DX2                !
 ! A133  A(22,21,48)           138.9189         estimate D2E/DX2                !
 ! A134  A(22,21,49)            96.3414         estimate D2E/DX2                !
 ! A135  A(23,21,49)            85.1415         estimate D2E/DX2                !
 ! A136  A(21,22,51)            96.4652         estimate D2E/DX2                !
 ! A137  A(10,24,17)           137.0544         estimate D2E/DX2                !
 ! A138  A(10,24,25)            81.6307         estimate D2E/DX2                !
 ! A139  A(10,24,26)            81.9414         estimate D2E/DX2                !
 ! A140  A(10,24,28)            84.2            estimate D2E/DX2                !
 ! A141  A(10,24,29)           135.2034         estimate D2E/DX2                !
 ! A142  A(17,24,25)            77.0929         estimate D2E/DX2                !
 ! A143  A(17,24,26)            86.6299         estimate D2E/DX2                !
 ! A144  A(17,24,28)           129.4126         estimate D2E/DX2                !
 ! A145  A(17,24,29)            82.7014         estimate D2E/DX2                !
 ! A146  A(25,24,26)           133.9706         estimate D2E/DX2                !
 ! A147  A(25,24,28)            84.3827         estimate D2E/DX2                !
 ! A148  A(25,24,29)           137.0835         estimate D2E/DX2                !
 ! A149  A(26,24,28)           135.8746         estimate D2E/DX2                !
 ! A150  A(26,24,29)            81.1256         estimate D2E/DX2                !
 ! A151  A(28,24,29)            79.8753         estimate D2E/DX2                !
 ! A152  A(24,25,33)            82.192          estimate D2E/DX2                !
 ! A153  A(24,25,36)            81.1591         estimate D2E/DX2                !
 ! A154  A(33,25,36)            89.7111         estimate D2E/DX2                !
 ! A155  A(9,26,13)             83.717          estimate D2E/DX2                !
 ! A156  A(9,26,24)             81.4076         estimate D2E/DX2                !
 ! A157  A(13,26,24)            82.4938         estimate D2E/DX2                !
 ! A158  A(11,27,15)            80.0879         estimate D2E/DX2                !
 ! A159  A(11,27,28)            82.9466         estimate D2E/DX2                !
 ! A160  A(11,27,29)           132.7009         estimate D2E/DX2                !
 ! A161  A(11,27,30)           132.2437         estimate D2E/DX2                !
 ! A162  A(11,27,55)            83.6745         estimate D2E/DX2                !
 ! A163  A(11,27,56)           136.4836         estimate D2E/DX2                !
 ! A164  A(15,27,28)           134.2222         estimate D2E/DX2                !
 ! A165  A(15,27,29)            80.0869         estimate D2E/DX2                !
 ! A166  A(15,27,30)           128.6972         estimate D2E/DX2                !
 ! A167  A(15,27,55)           135.8665         estimate D2E/DX2                !
 ! A168  A(15,27,56)            83.5864         estimate D2E/DX2                !
 ! A169  A(28,27,29)            81.012          estimate D2E/DX2                !
 ! A170  A(28,27,55)            83.1923         estimate D2E/DX2                !
 ! A171  A(28,27,56)           134.3033         estimate D2E/DX2                !
 ! A172  A(29,27,55)           137.323          estimate D2E/DX2                !
 ! A173  A(29,27,56)            82.6833         estimate D2E/DX2                !
 ! A174  A(30,27,55)            91.9502         estimate D2E/DX2                !
 ! A175  A(30,27,56)            88.7664         estimate D2E/DX2                !
 ! A176  A(55,27,56)            80.6185         estimate D2E/DX2                !
 ! A177  A(24,28,27)            83.9426         estimate D2E/DX2                !
 ! A178  A(24,28,30)            81.0599         estimate D2E/DX2                !
 ! A179  A(24,29,27)            84.3747         estimate D2E/DX2                !
 ! A180  A(24,29,30)            82.2329         estimate D2E/DX2                !
 ! A181  A(27,30,31)            98.5071         estimate D2E/DX2                !
 ! A182  A(27,30,32)           137.783          estimate D2E/DX2                !
 ! A183  A(27,30,33)           125.042          estimate D2E/DX2                !
 ! A184  A(27,30,34)           129.2825         estimate D2E/DX2                !
 ! A185  A(28,30,29)            82.7935         estimate D2E/DX2                !
 ! A186  A(28,30,31)           107.1645         estimate D2E/DX2                !
 ! A187  A(28,30,32)           139.2508         estimate D2E/DX2                !
 ! A188  A(28,30,33)            88.9162         estimate D2E/DX2                !
 ! A189  A(28,30,34)            79.4764         estimate D2E/DX2                !
 ! A190  A(29,30,31)           129.8791         estimate D2E/DX2                !
 ! A191  A(29,30,32)            87.5329         estimate D2E/DX2                !
 ! A192  A(29,30,33)            96.8554         estimate D2E/DX2                !
 ! A193  A(29,30,34)           138.7825         estimate D2E/DX2                !
 ! A194  A(31,30,32)           109.3126         estimate D2E/DX2                !
 ! A195  A(31,30,33)           131.4082         estimate D2E/DX2                !
 ! A196  A(31,30,34)            91.0055         estimate D2E/DX2                !
 ! A197  A(32,30,34)            82.3266         estimate D2E/DX2                !
 ! A198  A(30,31,57)            94.4046         estimate D2E/DX2                !
 ! A199  A(17,33,25)            79.4925         estimate D2E/DX2                !
 ! A200  A(17,33,30)            87.3262         estimate D2E/DX2                !
 ! A201  A(17,33,32)            77.8079         estimate D2E/DX2                !
 ! A202  A(17,33,34)           137.8432         estimate D2E/DX2                !
 ! A203  A(17,33,59)           117.4901         estimate D2E/DX2                !
 ! A204  A(25,33,30)            96.9822         estimate D2E/DX2                !
 ! A205  A(25,33,32)           137.7579         estimate D2E/DX2                !
 ! A206  A(25,33,34)            90.9138         estimate D2E/DX2                !
 ! A207  A(25,33,59)           116.1297         estimate D2E/DX2                !
 ! A208  A(30,33,59)           140.8352         estimate D2E/DX2                !
 ! A209  A(32,33,34)            82.7952         estimate D2E/DX2                !
 ! A210  A(32,33,59)           105.9156         estimate D2E/DX2                !
 ! A211  A(34,33,59)           103.6664         estimate D2E/DX2                !
 ! A212  A(17,36,25)            79.2124         estimate D2E/DX2                !
 ! A213  A(17,36,35)           102.2961         estimate D2E/DX2                !
 ! A214  A(17,36,37)           143.1459         estimate D2E/DX2                !
 ! A215  A(17,36,38)            86.2114         estimate D2E/DX2                !
 ! A216  A(17,36,39)           136.7185         estimate D2E/DX2                !
 ! A217  A(25,36,35)           103.9422         estimate D2E/DX2                !
 ! A218  A(25,36,37)            82.3925         estimate D2E/DX2                !
 ! A219  A(25,36,38)           139.6431         estimate D2E/DX2                !
 ! A220  A(25,36,39)           132.3134         estimate D2E/DX2                !
 ! A221  A(35,36,37)           113.0432         estimate D2E/DX2                !
 ! A222  A(35,36,38)           115.9194         estimate D2E/DX2                !
 ! A223  A(35,36,39)            97.3802         estimate D2E/DX2                !
 ! A224  A(37,36,38)            87.5482         estimate D2E/DX2                !
 ! A225  A(13,37,36)            76.9854         estimate D2E/DX2                !
 ! A226  A(13,37,39)            79.3846         estimate D2E/DX2                !
 ! A227  A(13,38,36)            78.0427         estimate D2E/DX2                !
 ! A228  A(13,38,39)            80.0471         estimate D2E/DX2                !
 ! A229  A(36,39,40)           156.8973         estimate D2E/DX2                !
 ! A230  A(36,39,41)            93.888          estimate D2E/DX2                !
 ! A231  A(36,39,62)           136.8115         estimate D2E/DX2                !
 ! A232  A(37,39,38)            92.4795         estimate D2E/DX2                !
 ! A233  A(37,39,40)           106.9804         estimate D2E/DX2                !
 ! A234  A(37,39,41)           112.9589         estimate D2E/DX2                !
 ! A235  A(38,39,40)           124.2839         estimate D2E/DX2                !
 ! A236  A(38,39,41)           112.8686         estimate D2E/DX2                !
 ! A237  A(38,39,62)            90.9793         estimate D2E/DX2                !
 ! A238  A(40,39,41)           106.4306         estimate D2E/DX2                !
 ! A239  A(40,39,62)            60.6943         estimate D2E/DX2                !
 ! A240  A(41,39,62)            77.4093         estimate D2E/DX2                !
 ! A241  A(18,40,39)            95.022          estimate D2E/DX2                !
 ! A242  A(18,42,43)            87.4762         estimate D2E/DX2                !
 ! A243  A(18,42,44)            97.5213         estimate D2E/DX2                !
 ! A244  A(18,42,61)           143.2822         estimate D2E/DX2                !
 ! A245  A(19,42,20)            82.1062         estimate D2E/DX2                !
 ! A246  A(19,42,43)           138.2514         estimate D2E/DX2                !
 ! A247  A(19,42,44)            92.7229         estimate D2E/DX2                !
 ! A248  A(19,42,61)           105.1637         estimate D2E/DX2                !
 ! A249  A(20,42,43)            77.7839         estimate D2E/DX2                !
 ! A250  A(20,42,44)           137.4941         estimate D2E/DX2                !
 ! A251  A(20,42,61)           107.9514         estimate D2E/DX2                !
 ! A252  A(43,42,44)            78.703          estimate D2E/DX2                !
 ! A253  A(43,42,61)           115.705          estimate D2E/DX2                !
 ! A254  A(44,42,61)           114.0736         estimate D2E/DX2                !
 ! A255  A(6,43,42)             81.4936         estimate D2E/DX2                !
 ! A256  A(6,43,45)             82.8285         estimate D2E/DX2                !
 ! A257  A(42,43,45)            89.2982         estimate D2E/DX2                !
 ! A258  A(6,44,42)             82.4856         estimate D2E/DX2                !
 ! A259  A(6,44,45)             82.3803         estimate D2E/DX2                !
 ! A260  A(42,44,45)            91.5031         estimate D2E/DX2                !
 ! A261  A(3,45,43)             84.2652         estimate D2E/DX2                !
 ! A262  A(3,45,44)            136.6903         estimate D2E/DX2                !
 ! A263  A(3,45,46)             88.1995         estimate D2E/DX2                !
 ! A264  A(3,45,47)            115.0235         estimate D2E/DX2                !
 ! A265  A(43,45,44)            77.1446         estimate D2E/DX2                !
 ! A266  A(43,45,46)           138.499          estimate D2E/DX2                !
 ! A267  A(43,45,47)           106.0264         estimate D2E/DX2                !
 ! A268  A(43,45,48)           136.2714         estimate D2E/DX2                !
 ! A269  A(44,45,46)            80.9476         estimate D2E/DX2                !
 ! A270  A(44,45,47)           107.6477         estimate D2E/DX2                !
 ! A271  A(44,45,48)           132.8423         estimate D2E/DX2                !
 ! A272  A(46,45,47)           114.0781         estimate D2E/DX2                !
 ! A273  A(47,45,48)            94.4547         estimate D2E/DX2                !
 ! A274  A(1,46,45)             80.1913         estimate D2E/DX2                !
 ! A275  A(1,46,48)             80.5578         estimate D2E/DX2                !
 ! A276  A(3,48,21)             91.1885         estimate D2E/DX2                !
 ! A277  A(3,48,23)             81.0388         estimate D2E/DX2                !
 ! A278  A(3,48,46)             86.1508         estimate D2E/DX2                !
 ! A279  A(3,48,49)            136.4087         estimate D2E/DX2                !
 ! A280  A(3,48,50)            119.6894         estimate D2E/DX2                !
 ! A281  A(21,48,45)           120.6989         estimate D2E/DX2                !
 ! A282  A(21,48,46)            90.2763         estimate D2E/DX2                !
 ! A283  A(21,48,50)           136.56           estimate D2E/DX2                !
 ! A284  A(23,48,45)           131.574          estimate D2E/DX2                !
 ! A285  A(23,48,46)           135.6428         estimate D2E/DX2                !
 ! A286  A(23,48,49)            80.6573         estimate D2E/DX2                !
 ! A287  A(23,48,50)           103.7435         estimate D2E/DX2                !
 ! A288  A(45,48,49)           130.6578         estimate D2E/DX2                !
 ! A289  A(45,48,50)           102.731          estimate D2E/DX2                !
 ! A290  A(46,48,49)            80.0502         estimate D2E/DX2                !
 ! A291  A(46,48,50)           119.3631         estimate D2E/DX2                !
 ! A292  A(49,48,50)           102.9902         estimate D2E/DX2                !
 ! A293  A(14,51,22)           122.9682         estimate D2E/DX2                !
 ! A294  A(14,51,52)            91.7826         estimate D2E/DX2                !
 ! A295  A(14,51,60)           111.3398         estimate D2E/DX2                !
 ! A296  A(22,51,52)           112.179          estimate D2E/DX2                !
 ! A297  A(22,51,54)           159.304          estimate D2E/DX2                !
 ! A298  A(22,51,60)           105.8872         estimate D2E/DX2                !
 ! A299  A(52,51,60)           112.2891         estimate D2E/DX2                !
 ! A300  A(54,51,60)            93.804          estimate D2E/DX2                !
 ! A301  A(12,52,51)            79.5651         estimate D2E/DX2                !
 ! A302  A(12,52,54)            76.1506         estimate D2E/DX2                !
 ! A303  A(14,54,52)            84.4548         estimate D2E/DX2                !
 ! A304  A(14,54,53)           105.2552         estimate D2E/DX2                !
 ! A305  A(14,54,55)           146.2188         estimate D2E/DX2                !
 ! A306  A(14,54,56)            85.6793         estimate D2E/DX2                !
 ! A307  A(14,54,57)           135.4076         estimate D2E/DX2                !
 ! A308  A(51,54,53)            86.1727         estimate D2E/DX2                !
 ! A309  A(51,54,55)           130.605          estimate D2E/DX2                !
 ! A310  A(51,54,56)           133.7901         estimate D2E/DX2                !
 ! A311  A(52,54,53)           105.4664         estimate D2E/DX2                !
 ! A312  A(52,54,55)            83.2922         estimate D2E/DX2                !
 ! A313  A(52,54,56)           145.3852         estimate D2E/DX2                !
 ! A314  A(52,54,57)           132.2978         estimate D2E/DX2                !
 ! A315  A(53,54,55)           108.3294         estimate D2E/DX2                !
 ! A316  A(53,54,56)           109.1359         estimate D2E/DX2                !
 ! A317  A(53,54,57)            89.7073         estimate D2E/DX2                !
 ! A318  A(55,54,56)            86.7885         estimate D2E/DX2                !
 ! A319  A(27,55,54)            76.0283         estimate D2E/DX2                !
 ! A320  A(27,55,57)            79.2841         estimate D2E/DX2                !
 ! A321  A(27,56,54)            77.4469         estimate D2E/DX2                !
 ! A322  A(27,56,57)            80.1529         estimate D2E/DX2                !
 ! A323  A(31,57,54)           157.4232         estimate D2E/DX2                !
 ! A324  A(31,57,55)           108.3934         estimate D2E/DX2                !
 ! A325  A(31,57,56)           123.6339         estimate D2E/DX2                !
 ! A326  A(31,57,58)           105.2568         estimate D2E/DX2                !
 ! A327  A(54,57,58)            95.3117         estimate D2E/DX2                !
 ! A328  A(55,57,56)            92.6464         estimate D2E/DX2                !
 ! A329  A(55,57,58)           113.7156         estimate D2E/DX2                !
 ! A330  A(56,57,58)           112.9013         estimate D2E/DX2                !
 ! A331  A(39,62,63)           107.704          estimate D2E/DX2                !
 ! A332  A(39,62,64)           110.0            estimate D2E/DX2                !
 ! A333  A(63,62,64)            90.0            estimate D2E/DX2                !
 ! A334  L(37,39,62,38,-1)     183.4588         estimate D2E/DX2                !
 ! A335  L(51,54,57,53,-1)     175.88           estimate D2E/DX2                !
 ! A336  L(37,39,62,38,-2)     192.9699         estimate D2E/DX2                !
 ! A337  L(51,54,57,53,-2)     177.9217         estimate D2E/DX2                !
 ! D1    D(3,1,2,12)           178.6402         estimate D2E/DX2                !
 ! D2    D(3,1,2,21)            94.3182         estimate D2E/DX2                !
 ! D3    D(4,1,2,12)           -27.7758         estimate D2E/DX2                !
 ! D4    D(4,1,2,21)          -112.0978         estimate D2E/DX2                !
 ! D5    D(5,1,2,12)            41.0097         estimate D2E/DX2                !
 ! D6    D(5,1,2,21)           -43.3123         estimate D2E/DX2                !
 ! D7    D(8,1,2,12)           -99.2524         estimate D2E/DX2                !
 ! D8    D(8,1,2,21)           176.4256         estimate D2E/DX2                !
 ! D9    D(46,1,2,12)          109.1118         estimate D2E/DX2                !
 ! D10   D(46,1,2,21)           24.7899         estimate D2E/DX2                !
 ! D11   D(2,1,3,45)          -175.0183         estimate D2E/DX2                !
 ! D12   D(2,1,3,48)           -96.248          estimate D2E/DX2                !
 ! D13   D(4,1,3,45)            31.1113         estimate D2E/DX2                !
 ! D14   D(4,1,3,48)           109.8815         estimate D2E/DX2                !
 ! D15   D(5,1,3,45)          -107.6073         estimate D2E/DX2                !
 ! D16   D(5,1,3,48)           -28.8371         estimate D2E/DX2                !
 ! D17   D(8,1,3,45)           101.3886         estimate D2E/DX2                !
 ! D18   D(8,1,3,48)          -179.8412         estimate D2E/DX2                !
 ! D19   D(46,1,3,45)          -38.8102         estimate D2E/DX2                !
 ! D20   D(46,1,3,48)           39.96           estimate D2E/DX2                !
 ! D21   D(2,1,4,6)           -112.2425         estimate D2E/DX2                !
 ! D22   D(2,1,4,9)            -29.3295         estimate D2E/DX2                !
 ! D23   D(3,1,4,6)             28.7561         estimate D2E/DX2                !
 ! D24   D(3,1,4,9)            111.6691         estimate D2E/DX2                !
 ! D25   D(5,1,4,6)           -179.7517         estimate D2E/DX2                !
 ! D26   D(5,1,4,9)            -96.8386         estimate D2E/DX2                !
 ! D27   D(8,1,4,6)            -40.8931         estimate D2E/DX2                !
 ! D28   D(8,1,4,9)             42.02           estimate D2E/DX2                !
 ! D29   D(46,1,4,6)            97.9121         estimate D2E/DX2                !
 ! D30   D(46,1,4,9)          -179.1748         estimate D2E/DX2                !
 ! D31   D(2,1,5,12)           -41.1146         estimate D2E/DX2                !
 ! D32   D(2,1,5,21)            43.1418         estimate D2E/DX2                !
 ! D33   D(3,1,5,12)          -109.4416         estimate D2E/DX2                !
 ! D34   D(3,1,5,21)           -25.1852         estimate D2E/DX2                !
 ! D35   D(4,1,5,12)            98.2851         estimate D2E/DX2                !
 ! D36   D(4,1,5,21)          -177.4585         estimate D2E/DX2                !
 ! D37   D(8,1,5,12)            26.3027         estimate D2E/DX2                !
 ! D38   D(8,1,5,21)           110.5591         estimate D2E/DX2                !
 ! D39   D(46,1,5,12)         -177.9527         estimate D2E/DX2                !
 ! D40   D(46,1,5,21)          -93.6963         estimate D2E/DX2                !
 ! D41   D(2,1,8,6)            179.5325         estimate D2E/DX2                !
 ! D42   D(2,1,8,9)             96.6479         estimate D2E/DX2                !
 ! D43   D(3,1,8,6)            -97.3576         estimate D2E/DX2                !
 ! D44   D(3,1,8,9)            179.7579         estimate D2E/DX2                !
 ! D45   D(4,1,8,6)             41.0146         estimate D2E/DX2                !
 ! D46   D(4,1,8,9)            -41.87           estimate D2E/DX2                !
 ! D47   D(5,1,8,6)            113.1214         estimate D2E/DX2                !
 ! D48   D(5,1,8,9)             30.2368         estimate D2E/DX2                !
 ! D49   D(46,1,8,6)           -30.6919         estimate D2E/DX2                !
 ! D50   D(46,1,8,9)          -113.5764         estimate D2E/DX2                !
 ! D51   D(2,1,46,45)          108.8035         estimate D2E/DX2                !
 ! D52   D(2,1,46,48)           30.0293         estimate D2E/DX2                !
 ! D53   D(3,1,46,45)           38.7762         estimate D2E/DX2                !
 ! D54   D(3,1,46,48)          -39.9979         estimate D2E/DX2                !
 ! D55   D(4,1,46,45)          -99.7126         estimate D2E/DX2                !
 ! D56   D(4,1,46,48)         -178.4868         estimate D2E/DX2                !
 ! D57   D(5,1,46,45)          176.1716         estimate D2E/DX2                !
 ! D58   D(5,1,46,48)           97.3974         estimate D2E/DX2                !
 ! D59   D(8,1,46,45)          -28.0145         estimate D2E/DX2                !
 ! D60   D(8,1,46,48)         -106.7886         estimate D2E/DX2                !
 ! D61   D(1,2,12,5)           -41.6289         estimate D2E/DX2                !
 ! D62   D(1,2,12,11)           28.7015         estimate D2E/DX2                !
 ! D63   D(1,2,12,14)         -178.4285         estimate D2E/DX2                !
 ! D64   D(1,2,12,15)           95.504          estimate D2E/DX2                !
 ! D65   D(1,2,12,52)         -111.4996         estimate D2E/DX2                !
 ! D66   D(21,2,12,5)           39.5982         estimate D2E/DX2                !
 ! D67   D(21,2,12,11)         109.9285         estimate D2E/DX2                !
 ! D68   D(21,2,12,14)         -97.2015         estimate D2E/DX2                !
 ! D69   D(21,2,12,15)         176.7311         estimate D2E/DX2                !
 ! D70   D(21,2,12,52)         -30.2725         estimate D2E/DX2                !
 ! D71   D(1,2,21,5)            44.4177         estimate D2E/DX2                !
 ! D72   D(1,2,21,22)          150.6662         estimate D2E/DX2                !
 ! D73   D(1,2,21,23)          -99.4373         estimate D2E/DX2                !
 ! D74   D(1,2,21,48)          -49.1833         estimate D2E/DX2                !
 ! D75   D(1,2,21,49)          -25.7877         estimate D2E/DX2                !
 ! D76   D(12,2,21,5)          -39.9695         estimate D2E/DX2                !
 ! D77   D(12,2,21,22)          66.279          estimate D2E/DX2                !
 ! D78   D(12,2,21,23)         176.1755         estimate D2E/DX2                !
 ! D79   D(12,2,21,48)        -133.5705         estimate D2E/DX2                !
 ! D80   D(12,2,21,49)        -110.1749         estimate D2E/DX2                !
 ! D81   D(1,3,45,43)          -97.6046         estimate D2E/DX2                !
 ! D82   D(1,3,45,44)          -33.2323         estimate D2E/DX2                !
 ! D83   D(1,3,45,46)           41.5293         estimate D2E/DX2                !
 ! D84   D(1,3,45,47)          157.365          estimate D2E/DX2                !
 ! D85   D(1,3,48,21)           48.2437         estimate D2E/DX2                !
 ! D86   D(1,3,48,23)           95.4449         estimate D2E/DX2                !
 ! D87   D(1,3,48,46)          -41.9533         estimate D2E/DX2                !
 ! D88   D(1,3,48,49)           29.2729         estimate D2E/DX2                !
 ! D89   D(1,3,48,50)         -163.7802         estimate D2E/DX2                !
 ! D90   D(1,4,6,7)            178.7039         estimate D2E/DX2                !
 ! D91   D(1,4,6,8)             40.7456         estimate D2E/DX2                !
 ! D92   D(1,4,6,16)           109.1707         estimate D2E/DX2                !
 ! D93   D(1,4,6,43)           -37.3152         estimate D2E/DX2                !
 ! D94   D(1,4,6,44)           -95.91           estimate D2E/DX2                !
 ! D95   D(9,4,6,7)             96.6623         estimate D2E/DX2                !
 ! D96   D(9,4,6,8)            -41.296          estimate D2E/DX2                !
 ! D97   D(9,4,6,16)            27.1291         estimate D2E/DX2                !
 ! D98   D(9,4,6,43)          -119.3567         estimate D2E/DX2                !
 ! D99   D(9,4,6,44)          -177.9516         estimate D2E/DX2                !
 ! D100  D(1,4,9,8)            -41.2391         estimate D2E/DX2                !
 ! D101  D(1,4,9,10)          -178.1658         estimate D2E/DX2                !
 ! D102  D(1,4,9,11)            96.0962         estimate D2E/DX2                !
 ! D103  D(1,4,9,15)            29.3827         estimate D2E/DX2                !
 ! D104  D(1,4,9,26)          -110.4239         estimate D2E/DX2                !
 ! D105  D(6,4,9,8)             40.6808         estimate D2E/DX2                !
 ! D106  D(6,4,9,10)           -96.2459         estimate D2E/DX2                !
 ! D107  D(6,4,9,11)           178.0162         estimate D2E/DX2                !
 ! D108  D(6,4,9,15)           111.3026         estimate D2E/DX2                !
 ! D109  D(6,4,9,26)           -28.504          estimate D2E/DX2                !
 ! D110  D(1,5,12,2)            41.3881         estimate D2E/DX2                !
 ! D111  D(1,5,12,11)          -94.7944         estimate D2E/DX2                !
 ! D112  D(1,5,12,14)          111.3563         estimate D2E/DX2                !
 ! D113  D(1,5,12,15)          -26.3664         estimate D2E/DX2                !
 ! D114  D(1,5,12,52)         -179.5787         estimate D2E/DX2                !
 ! D115  D(21,5,12,2)          -39.3964         estimate D2E/DX2                !
 ! D116  D(21,5,12,11)        -175.5789         estimate D2E/DX2                !
 ! D117  D(21,5,12,14)          30.5718         estimate D2E/DX2                !
 ! D118  D(21,5,12,15)        -107.1509         estimate D2E/DX2                !
 ! D119  D(21,5,12,52)          99.6368         estimate D2E/DX2                !
 ! D120  D(1,5,21,2)           -44.2097         estimate D2E/DX2                !
 ! D121  D(1,5,21,22)         -166.5647         estimate D2E/DX2                !
 ! D122  D(1,5,21,23)           24.7664         estimate D2E/DX2                !
 ! D123  D(1,5,21,48)           48.7714         estimate D2E/DX2                !
 ! D124  D(1,5,21,49)           98.7985         estimate D2E/DX2                !
 ! D125  D(12,5,21,2)           40.0668         estimate D2E/DX2                !
 ! D126  D(12,5,21,22)         -82.2881         estimate D2E/DX2                !
 ! D127  D(12,5,21,23)         109.043          estimate D2E/DX2                !
 ! D128  D(12,5,21,48)         133.048          estimate D2E/DX2                !
 ! D129  D(12,5,21,49)        -176.9249         estimate D2E/DX2                !
 ! D130  D(4,6,7,13)           -96.8487         estimate D2E/DX2                !
 ! D131  D(4,6,7,18)          -178.6867         estimate D2E/DX2                !
 ! D132  D(8,6,7,13)           -23.4972         estimate D2E/DX2                !
 ! D133  D(8,6,7,18)          -105.3353         estimate D2E/DX2                !
 ! D134  D(16,6,7,13)           41.338          estimate D2E/DX2                !
 ! D135  D(16,6,7,18)          -40.5001         estimate D2E/DX2                !
 ! D136  D(43,6,7,13)          114.4356         estimate D2E/DX2                !
 ! D137  D(43,6,7,18)           32.5976         estimate D2E/DX2                !
 ! D138  D(44,6,7,13)         -178.9432         estimate D2E/DX2                !
 ! D139  D(44,6,7,18)           99.2188         estimate D2E/DX2                !
 ! D140  D(4,6,8,1)            -41.1539         estimate D2E/DX2                !
 ! D141  D(4,6,8,9)             41.1889         estimate D2E/DX2                !
 ! D142  D(7,6,8,1)           -115.0235         estimate D2E/DX2                !
 ! D143  D(7,6,8,9)            -32.6807         estimate D2E/DX2                !
 ! D144  D(16,6,8,1)          -179.7599         estimate D2E/DX2                !
 ! D145  D(16,6,8,9)           -97.4171         estimate D2E/DX2                !
 ! D146  D(43,6,8,1)            96.4814         estimate D2E/DX2                !
 ! D147  D(43,6,8,9)           178.8242         estimate D2E/DX2                !
 ! D148  D(44,6,8,1)            29.8112         estimate D2E/DX2                !
 ! D149  D(44,6,8,9)           112.154          estimate D2E/DX2                !
 ! D150  D(4,6,16,13)           29.9235         estimate D2E/DX2                !
 ! D151  D(4,6,16,18)          112.059          estimate D2E/DX2                !
 ! D152  D(7,6,16,13)          -41.175          estimate D2E/DX2                !
 ! D153  D(7,6,16,18)           40.9606         estimate D2E/DX2                !
 ! D154  D(8,6,16,13)           99.2839         estimate D2E/DX2                !
 ! D155  D(8,6,16,18)         -178.5805         estimate D2E/DX2                !
 ! D156  D(43,6,16,13)        -172.5563         estimate D2E/DX2                !
 ! D157  D(43,6,16,18)         -90.4207         estimate D2E/DX2                !
 ! D158  D(44,6,16,13)        -112.0769         estimate D2E/DX2                !
 ! D159  D(44,6,16,18)         -29.9413         estimate D2E/DX2                !
 ! D160  D(4,6,43,42)         -105.2124         estimate D2E/DX2                !
 ! D161  D(4,6,43,45)          -14.8493         estimate D2E/DX2                !
 ! D162  D(7,6,43,42)           26.1072         estimate D2E/DX2                !
 ! D163  D(7,6,43,45)          116.4703         estimate D2E/DX2                !
 ! D164  D(8,6,43,42)          178.3801         estimate D2E/DX2                !
 ! D165  D(8,6,43,45)          -91.2568         estimate D2E/DX2                !
 ! D166  D(16,6,43,42)          97.7236         estimate D2E/DX2                !
 ! D167  D(16,6,43,45)        -171.9133         estimate D2E/DX2                !
 ! D168  D(44,6,43,42)         -44.5432         estimate D2E/DX2                !
 ! D169  D(44,6,43,45)          45.8199         estimate D2E/DX2                !
 ! D170  D(4,6,44,42)         -170.8988         estimate D2E/DX2                !
 ! D171  D(4,6,44,45)           96.5599         estimate D2E/DX2                !
 ! D172  D(7,6,44,42)          -86.007          estimate D2E/DX2                !
 ! D173  D(7,6,44,45)         -178.5483         estimate D2E/DX2                !
 ! D174  D(8,6,44,42)          117.6462         estimate D2E/DX2                !
 ! D175  D(8,6,44,45)           25.1049         estimate D2E/DX2                !
 ! D176  D(16,6,44,42)         -16.7656         estimate D2E/DX2                !
 ! D177  D(16,6,44,45)        -109.3069         estimate D2E/DX2                !
 ! D178  D(43,6,44,42)          46.4131         estimate D2E/DX2                !
 ! D179  D(43,6,44,45)         -46.1282         estimate D2E/DX2                !
 ! D180  D(6,7,13,10)           94.3364         estimate D2E/DX2                !
 ! D181  D(6,7,13,16)          -41.4329         estimate D2E/DX2                !
 ! D182  D(6,7,13,26)           25.1514         estimate D2E/DX2                !
 ! D183  D(6,7,13,37)          179.8444         estimate D2E/DX2                !
 ! D184  D(6,7,13,38)         -111.4891         estimate D2E/DX2                !
 ! D185  D(18,7,13,10)         176.6288         estimate D2E/DX2                !
 ! D186  D(18,7,13,16)          40.8594         estimate D2E/DX2                !
 ! D187  D(18,7,13,26)         107.4437         estimate D2E/DX2                !
 ! D188  D(18,7,13,37)         -97.8633         estimate D2E/DX2                !
 ! D189  D(18,7,13,38)         -29.1968         estimate D2E/DX2                !
 ! D190  D(6,7,18,16)           41.8259         estimate D2E/DX2                !
 ! D191  D(6,7,18,19)         -100.5129         estimate D2E/DX2                !
 ! D192  D(6,7,18,20)          -36.6767         estimate D2E/DX2                !
 ! D193  D(6,7,18,40)          169.8692         estimate D2E/DX2                !
 ! D194  D(6,7,18,42)          -55.3515         estimate D2E/DX2                !
 ! D195  D(13,7,18,16)         -42.105          estimate D2E/DX2                !
 ! D196  D(13,7,18,19)         175.5562         estimate D2E/DX2                !
 ! D197  D(13,7,18,20)        -120.6076         estimate D2E/DX2                !
 ! D198  D(13,7,18,40)          85.9382         estimate D2E/DX2                !
 ! D199  D(13,7,18,42)        -139.2825         estimate D2E/DX2                !
 ! D200  D(1,8,9,4)             41.6978         estimate D2E/DX2                !
 ! D201  D(1,8,9,10)           112.1095         estimate D2E/DX2                !
 ! D202  D(1,8,9,11)           -29.7018         estimate D2E/DX2                !
 ! D203  D(1,8,9,15)           -95.7479         estimate D2E/DX2                !
 ! D204  D(1,8,9,26)           179.4704         estimate D2E/DX2                !
 ! D205  D(6,8,9,4)            -40.8821         estimate D2E/DX2                !
 ! D206  D(6,8,9,10)            29.5295         estimate D2E/DX2                !
 ! D207  D(6,8,9,11)          -112.2817         estimate D2E/DX2                !
 ! D208  D(6,8,9,15)          -178.3278         estimate D2E/DX2                !
 ! D209  D(6,8,9,26)            96.8905         estimate D2E/DX2                !
 ! D210  D(4,9,10,13)           97.5699         estimate D2E/DX2                !
 ! D211  D(4,9,10,24)         -179.5742         estimate D2E/DX2                !
 ! D212  D(8,9,10,13)           27.3613         estimate D2E/DX2                !
 ! D213  D(8,9,10,24)          110.2172         estimate D2E/DX2                !
 ! D214  D(11,9,10,13)        -178.7804         estimate D2E/DX2                !
 ! D215  D(11,9,10,24)         -95.9245         estimate D2E/DX2                !
 ! D216  D(15,9,10,13)        -110.7249         estimate D2E/DX2                !
 ! D217  D(15,9,10,24)         -27.869          estimate D2E/DX2                !
 ! D218  D(26,9,10,13)         -40.5224         estimate D2E/DX2                !
 ! D219  D(26,9,10,24)          42.3335         estimate D2E/DX2                !
 ! D220  D(4,9,11,12)          -97.2357         estimate D2E/DX2                !
 ! D221  D(4,9,11,27)          179.5977         estimate D2E/DX2                !
 ! D222  D(8,9,11,12)          -26.3881         estimate D2E/DX2                !
 ! D223  D(8,9,11,27)         -109.5547         estimate D2E/DX2                !
 ! D224  D(10,9,11,12)        -179.917          estimate D2E/DX2                !
 ! D225  D(10,9,11,27)          96.9163         estimate D2E/DX2                !
 ! D226  D(15,9,11,12)          41.0501         estimate D2E/DX2                !
 ! D227  D(15,9,11,27)         -42.1165         estimate D2E/DX2                !
 ! D228  D(26,9,11,12)         109.8598         estimate D2E/DX2                !
 ! D229  D(26,9,11,27)          26.6932         estimate D2E/DX2                !
 ! D230  D(4,9,15,12)           27.1632         estimate D2E/DX2                !
 ! D231  D(4,9,15,27)          110.4072         estimate D2E/DX2                !
 ! D232  D(8,9,15,12)           97.4494         estimate D2E/DX2                !
 ! D233  D(8,9,15,27)         -179.3066         estimate D2E/DX2                !
 ! D234  D(10,9,15,12)        -111.4871         estimate D2E/DX2                !
 ! D235  D(10,9,15,27)         -28.2431         estimate D2E/DX2                !
 ! D236  D(11,9,15,12)         -41.1643         estimate D2E/DX2                !
 ! D237  D(11,9,15,27)          42.0797         estimate D2E/DX2                !
 ! D238  D(26,9,15,12)         179.6687         estimate D2E/DX2                !
 ! D239  D(26,9,15,27)         -97.0873         estimate D2E/DX2                !
 ! D240  D(4,9,26,13)          -27.6687         estimate D2E/DX2                !
 ! D241  D(4,9,26,24)         -110.9913         estimate D2E/DX2                !
 ! D242  D(8,9,26,13)          -96.8987         estimate D2E/DX2                !
 ! D243  D(8,9,26,24)          179.7786         estimate D2E/DX2                !
 ! D244  D(10,9,26,13)          40.8329         estimate D2E/DX2                !
 ! D245  D(10,9,26,24)         -42.4897         estimate D2E/DX2                !
 ! D246  D(11,9,26,13)         112.8548         estimate D2E/DX2                !
 ! D247  D(11,9,26,24)          29.5322         estimate D2E/DX2                !
 ! D248  D(15,9,26,13)         179.8095         estimate D2E/DX2                !
 ! D249  D(15,9,26,24)          96.4869         estimate D2E/DX2                !
 ! D250  D(9,10,13,7)          -96.9727         estimate D2E/DX2                !
 ! D251  D(9,10,13,16)         -26.4752         estimate D2E/DX2                !
 ! D252  D(9,10,13,26)          40.9685         estimate D2E/DX2                !
 ! D253  D(9,10,13,37)         179.6894         estimate D2E/DX2                !
 ! D254  D(9,10,13,38)         109.1674         estimate D2E/DX2                !
 ! D255  D(24,10,13,7)        -178.9917         estimate D2E/DX2                !
 ! D256  D(24,10,13,16)       -108.4942         estimate D2E/DX2                !
 ! D257  D(24,10,13,26)        -41.0505         estimate D2E/DX2                !
 ! D258  D(24,10,13,37)         97.6704         estimate D2E/DX2                !
 ! D259  D(24,10,13,38)         27.1484         estimate D2E/DX2                !
 ! D260  D(9,10,24,17)        -119.2661         estimate D2E/DX2                !
 ! D261  D(9,10,24,25)        -179.9615         estimate D2E/DX2                !
 ! D262  D(9,10,24,26)         -43.1093         estimate D2E/DX2                !
 ! D263  D(9,10,24,28)          94.8859         estimate D2E/DX2                !
 ! D264  D(9,10,24,29)          25.5616         estimate D2E/DX2                !
 ! D265  D(13,10,24,17)        -34.8243         estimate D2E/DX2                !
 ! D266  D(13,10,24,25)        -95.5196         estimate D2E/DX2                !
 ! D267  D(13,10,24,26)         41.3325         estimate D2E/DX2                !
 ! D268  D(13,10,24,28)        179.3277         estimate D2E/DX2                !
 ! D269  D(13,10,24,29)        110.0035         estimate D2E/DX2                !
 ! D270  D(9,11,12,2)           25.4203         estimate D2E/DX2                !
 ! D271  D(9,11,12,5)           95.2265         estimate D2E/DX2                !
 ! D272  D(9,11,12,14)        -112.7723         estimate D2E/DX2                !
 ! D273  D(9,11,12,15)         -41.5763         estimate D2E/DX2                !
 ! D274  D(9,11,12,52)         178.926          estimate D2E/DX2                !
 ! D275  D(27,11,12,2)         109.4171         estimate D2E/DX2                !
 ! D276  D(27,11,12,5)         179.2233         estimate D2E/DX2                !
 ! D277  D(27,11,12,14)        -28.7756         estimate D2E/DX2                !
 ! D278  D(27,11,12,15)         42.4205         estimate D2E/DX2                !
 ! D279  D(27,11,12,52)        -97.0772         estimate D2E/DX2                !
 ! D280  D(9,11,27,15)          42.5605         estimate D2E/DX2                !
 ! D281  D(9,11,27,28)         -94.7493         estimate D2E/DX2                !
 ! D282  D(9,11,27,29)         -23.9201         estimate D2E/DX2                !
 ! D283  D(9,11,27,30)         -91.7577         estimate D2E/DX2                !
 ! D284  D(9,11,27,55)        -178.6382         estimate D2E/DX2                !
 ! D285  D(9,11,27,56)         112.1512         estimate D2E/DX2                !
 ! D286  D(12,11,27,15)        -42.3189         estimate D2E/DX2                !
 ! D287  D(12,11,27,28)       -179.6288         estimate D2E/DX2                !
 ! D288  D(12,11,27,29)       -108.7995         estimate D2E/DX2                !
 ! D289  D(12,11,27,30)       -176.6371         estimate D2E/DX2                !
 ! D290  D(12,11,27,55)         96.4823         estimate D2E/DX2                !
 ! D291  D(12,11,27,56)         27.2717         estimate D2E/DX2                !
 ! D292  D(2,12,14,51)         103.257          estimate D2E/DX2                !
 ! D293  D(2,12,14,54)        -174.9902         estimate D2E/DX2                !
 ! D294  D(5,12,14,51)          33.7837         estimate D2E/DX2                !
 ! D295  D(5,12,14,54)         115.5364         estimate D2E/DX2                !
 ! D296  D(11,12,14,51)       -106.0974         estimate D2E/DX2                !
 ! D297  D(11,12,14,54)        -24.3447         estimate D2E/DX2                !
 ! D298  D(15,12,14,51)       -175.5429         estimate D2E/DX2                !
 ! D299  D(15,12,14,54)        -93.7901         estimate D2E/DX2                !
 ! D300  D(52,12,14,51)        -36.4151         estimate D2E/DX2                !
 ! D301  D(52,12,14,54)         45.3377         estimate D2E/DX2                !
 ! D302  D(2,12,15,9)          -95.5994         estimate D2E/DX2                !
 ! D303  D(2,12,15,27)        -179.5476         estimate D2E/DX2                !
 ! D304  D(5,12,15,9)          -27.7039         estimate D2E/DX2                !
 ! D305  D(5,12,15,27)        -111.6522         estimate D2E/DX2                !
 ! D306  D(11,12,15,9)          41.5781         estimate D2E/DX2                !
 ! D307  D(11,12,15,27)        -42.3702         estimate D2E/DX2                !
 ! D308  D(14,12,15,9)        -178.5224         estimate D2E/DX2                !
 ! D309  D(14,12,15,27)         97.5293         estimate D2E/DX2                !
 ! D310  D(52,12,15,9)         111.6649         estimate D2E/DX2                !
 ! D311  D(52,12,15,27)         27.7166         estimate D2E/DX2                !
 ! D312  D(2,12,52,51)         -30.7059         estimate D2E/DX2                !
 ! D313  D(2,12,52,54)        -112.9455         estimate D2E/DX2                !
 ! D314  D(5,12,52,51)         -99.8222         estimate D2E/DX2                !
 ! D315  D(5,12,52,54)         177.9382         estimate D2E/DX2                !
 ! D316  D(11,12,52,51)        177.2628         estimate D2E/DX2                !
 ! D317  D(11,12,52,54)         95.0232         estimate D2E/DX2                !
 ! D318  D(14,12,52,51)         36.9923         estimate D2E/DX2                !
 ! D319  D(14,12,52,54)        -45.2473         estimate D2E/DX2                !
 ! D320  D(15,12,52,51)        108.5891         estimate D2E/DX2                !
 ! D321  D(15,12,52,54)         26.3495         estimate D2E/DX2                !
 ! D322  D(7,13,16,6)           41.8833         estimate D2E/DX2                !
 ! D323  D(7,13,16,18)         -41.3993         estimate D2E/DX2                !
 ! D324  D(10,13,16,6)         -29.1535         estimate D2E/DX2                !
 ! D325  D(10,13,16,18)       -112.4362         estimate D2E/DX2                !
 ! D326  D(26,13,16,6)         -96.8903         estimate D2E/DX2                !
 ! D327  D(26,13,16,18)        179.8271         estimate D2E/DX2                !
 ! D328  D(37,13,16,6)         111.7919         estimate D2E/DX2                !
 ! D329  D(37,13,16,18)         28.5092         estimate D2E/DX2                !
 ! D330  D(38,13,16,6)        -179.8461         estimate D2E/DX2                !
 ! D331  D(38,13,16,18)         96.8713         estimate D2E/DX2                !
 ! D332  D(7,13,26,9)           28.831          estimate D2E/DX2                !
 ! D333  D(7,13,26,24)         110.951          estimate D2E/DX2                !
 ! D334  D(10,13,26,9)         -40.9573         estimate D2E/DX2                !
 ! D335  D(10,13,26,24)         41.1626         estimate D2E/DX2                !
 ! D336  D(16,13,26,9)          95.7843         estimate D2E/DX2                !
 ! D337  D(16,13,26,24)        177.9043         estimate D2E/DX2                !
 ! D338  D(37,13,26,9)        -113.2253         estimate D2E/DX2                !
 ! D339  D(37,13,26,24)        -31.1053         estimate D2E/DX2                !
 ! D340  D(38,13,26,9)         179.6828         estimate D2E/DX2                !
 ! D341  D(38,13,26,24)        -98.1972         estimate D2E/DX2                !
 ! D342  D(7,13,37,36)        -179.3237         estimate D2E/DX2                !
 ! D343  D(7,13,37,39)         102.1861         estimate D2E/DX2                !
 ! D344  D(10,13,37,36)        -96.2182         estimate D2E/DX2                !
 ! D345  D(10,13,37,39)       -174.7083         estimate D2E/DX2                !
 ! D346  D(16,13,37,36)        111.3485         estimate D2E/DX2                !
 ! D347  D(16,13,37,39)         32.8583         estimate D2E/DX2                !
 ! D348  D(26,13,37,36)        -25.3463         estimate D2E/DX2                !
 ! D349  D(26,13,37,39)       -103.8365         estimate D2E/DX2                !
 ! D350  D(38,13,37,36)         42.2091         estimate D2E/DX2                !
 ! D351  D(38,13,37,39)        -36.2811         estimate D2E/DX2                !
 ! D352  D(7,13,38,36)        -111.5867         estimate D2E/DX2                !
 ! D353  D(7,13,38,39)         -33.6726         estimate D2E/DX2                !
 ! D354  D(10,13,38,36)         29.9522         estimate D2E/DX2                !
 ! D355  D(10,13,38,39)        107.8664         estimate D2E/DX2                !
 ! D356  D(16,13,38,36)        178.9225         estimate D2E/DX2                !
 ! D357  D(16,13,38,39)       -103.1634         estimate D2E/DX2                !
 ! D358  D(26,13,38,36)         97.8109         estimate D2E/DX2                !
 ! D359  D(26,13,38,39)        175.7251         estimate D2E/DX2                !
 ! D360  D(37,13,38,36)        -42.1103         estimate D2E/DX2                !
 ! D361  D(37,13,38,39)         35.8039         estimate D2E/DX2                !
 ! D362  D(12,14,51,22)        -76.5793         estimate D2E/DX2                !
 ! D363  D(12,14,51,52)         41.4784         estimate D2E/DX2                !
 ! D364  D(12,14,51,60)        156.2849         estimate D2E/DX2                !
 ! D365  D(12,14,54,52)        -47.6599         estimate D2E/DX2                !
 ! D366  D(12,14,54,53)       -152.2105         estimate D2E/DX2                !
 ! D367  D(12,14,54,55)         21.4737         estimate D2E/DX2                !
 ! D368  D(12,14,54,56)         99.1177         estimate D2E/DX2                !
 ! D369  D(12,14,54,57)        102.1792         estimate D2E/DX2                !
 ! D370  D(9,15,27,11)         -42.5785         estimate D2E/DX2                !
 ! D371  D(9,15,27,28)          27.3003         estimate D2E/DX2                !
 ! D372  D(9,15,27,29)          94.2595         estimate D2E/DX2                !
 ! D373  D(9,15,27,30)          94.6836         estimate D2E/DX2                !
 ! D374  D(9,15,27,55)        -112.6568         estimate D2E/DX2                !
 ! D375  D(9,15,27,56)         177.9181         estimate D2E/DX2                !
 ! D376  D(12,15,27,11)         42.4412         estimate D2E/DX2                !
 ! D377  D(12,15,27,28)        112.3199         estimate D2E/DX2                !
 ! D378  D(12,15,27,29)        179.2791         estimate D2E/DX2                !
 ! D379  D(12,15,27,30)        179.7032         estimate D2E/DX2                !
 ! D380  D(12,15,27,55)        -27.6371         estimate D2E/DX2                !
 ! D381  D(12,15,27,56)        -97.0623         estimate D2E/DX2                !
 ! D382  D(6,16,18,7)          -42.185          estimate D2E/DX2                !
 ! D383  D(6,16,18,19)          23.5259         estimate D2E/DX2                !
 ! D384  D(6,16,18,20)          97.0737         estimate D2E/DX2                !
 ! D385  D(6,16,18,40)        -150.4661         estimate D2E/DX2                !
 ! D386  D(6,16,18,42)          45.0819         estimate D2E/DX2                !
 ! D387  D(13,16,18,7)          41.916          estimate D2E/DX2                !
 ! D388  D(13,16,18,19)        107.6269         estimate D2E/DX2                !
 ! D389  D(13,16,18,20)       -178.8253         estimate D2E/DX2                !
 ! D390  D(13,16,18,40)        -66.3651         estimate D2E/DX2                !
 ! D391  D(13,16,18,42)        129.1829         estimate D2E/DX2                !
 ! D392  D(33,17,24,10)       -106.1612         estimate D2E/DX2                !
 ! D393  D(33,17,24,25)        -43.8965         estimate D2E/DX2                !
 ! D394  D(33,17,24,26)        179.4667         estimate D2E/DX2                !
 ! D395  D(33,17,24,28)         27.5435         estimate D2E/DX2                !
 ! D396  D(33,17,24,29)         97.9926         estimate D2E/DX2                !
 ! D397  D(36,17,24,10)        -17.1205         estimate D2E/DX2                !
 ! D398  D(36,17,24,25)         45.1441         estimate D2E/DX2                !
 ! D399  D(36,17,24,26)        -91.4927         estimate D2E/DX2                !
 ! D400  D(36,17,24,28)        116.5842         estimate D2E/DX2                !
 ! D401  D(36,17,24,29)       -172.9668         estimate D2E/DX2                !
 ! D402  D(24,17,33,25)         46.1405         estimate D2E/DX2                !
 ! D403  D(24,17,33,30)        -51.4695         estimate D2E/DX2                !
 ! D404  D(24,17,33,32)        -97.9931         estimate D2E/DX2                !
 ! D405  D(24,17,33,34)        -33.4493         estimate D2E/DX2                !
 ! D406  D(24,17,33,59)        160.2459         estimate D2E/DX2                !
 ! D407  D(36,17,33,25)        -35.7449         estimate D2E/DX2                !
 ! D408  D(36,17,33,30)       -133.3549         estimate D2E/DX2                !
 ! D409  D(36,17,33,32)       -179.8784         estimate D2E/DX2                !
 ! D410  D(36,17,33,34)       -115.3347         estimate D2E/DX2                !
 ! D411  D(36,17,33,59)         78.3605         estimate D2E/DX2                !
 ! D412  D(24,17,36,25)        -46.4615         estimate D2E/DX2                !
 ! D413  D(24,17,36,35)       -148.555          estimate D2E/DX2                !
 ! D414  D(24,17,36,37)         14.9254         estimate D2E/DX2                !
 ! D415  D(24,17,36,38)         95.7287         estimate D2E/DX2                !
 ! D416  D(24,17,36,39)         96.4076         estimate D2E/DX2                !
 ! D417  D(33,17,36,25)         35.0611         estimate D2E/DX2                !
 ! D418  D(33,17,36,35)        -67.0323         estimate D2E/DX2                !
 ! D419  D(33,17,36,37)         96.4481         estimate D2E/DX2                !
 ! D420  D(33,17,36,38)        177.2514         estimate D2E/DX2                !
 ! D421  D(33,17,36,39)        177.9303         estimate D2E/DX2                !
 ! D422  D(7,18,40,39)         -66.0477         estimate D2E/DX2                !
 ! D423  D(16,18,40,39)         30.1627         estimate D2E/DX2                !
 ! D424  D(19,18,40,39)       -145.8773         estimate D2E/DX2                !
 ! D425  D(20,18,40,39)        132.3055         estimate D2E/DX2                !
[...]
 2923,-0.00090183,-0.00145003,-0.00083786,0.00010225,0.00015252,-0.0000
 9383,-0.00057244,-0.00063497,0.00082095,-0.00000193,-0.00000424,0.0000
 0241,-0.00000139,-0.00000080,0.00000145,0.00000291,0.00000085,0.000000
 99,-0.00004301,0.00000500,-0.00001481,0.00015639,0.00017095,-0.0000304
 2,0.00006991,-0.00002051,0.00006413,0.00000485,-0.00000339,0.00000442,
 -0.00000816,-0.00000042,-0.00000155,-0.00000306,0.00001051,0.00000149,
 -0.00001784,0.00002302,0.00000746,0.00000121,0.00000219,0.00000036,0.0
 0000751,-0.00000504,0.00000801,0.00014309,-0.00003012,-0.00001750,-0.0
 0001581,0.00000613,-0.00001363,0.00014508,-0.00008438,0.00006131,-0.00
 154888,-0.00093005,0.00037561,0.00302397,-0.00237404,0.00112029,0.0017
 2045,0.00134715,0.00114743,-0.00168966,-0.00259519,-0.01213508,-0.0039
 5344,-0.00909741,-0.00132963,-0.00040148,0.00018423,0.00050286,-0.0000
 4434,0.00025132,0.00002327,0.00008745,-0.00002813,0.00002340,0.0000307
 1,0.00006720,-0.00007512,0.00001589,0.00000993,0.00002107,0.00000630,0
 .00000023,-0.00000273,0.00000426,0.00000822,-0.00000128,0.00000244,0.0
 0000229,-0.00000205,0.00000153,-0.00000004,-0.00000047,-0.00000203,0.0
 0000016,0.00000099,0.00000009,0.00000122,-0.00000353,0.00000102,-0.000
 00166,-0.00000117,0.00000047,0.00000028,-0.00000045,-0.00000079,-0.000
 00052,0.00000114,-0.00000074,0.00000124,-0.00000032,-0.00000207,-0.000
 00044,-0.00000182,0.00000081,-0.00000178,-0.00000225,-0.00000012,0.000
 00041,0.,-0.00000943,-0.00001035,-0.00000714,-0.00000020,0.00000040,-0
 .00000055,0.00002371,0.00001136,0.00002677,0.03101019,0.25929358,0.000
 01239,-0.00002313,0.00002439,0.00000038,0.00000665,-0.00000545,-0.0000
 1194,-0.00000187,-0.00001191,-0.00003473,0.00003426,-0.00003647,-0.000
 00468,0.00000081,-0.00000761,-0.00016556,0.00012969,-0.00029046,0.0004
 9340,0.00003966,-0.00003441,-0.00003772,0.00001047,-0.00003790,0.00002
 482,0.00003646,-0.00002345,-0.00018628,0.00011707,0.00006071,-0.000013
 74,0.00000006,-0.00000537,0.00002669,-0.00000126,-0.00000047,0.0003176
 1,-0.00080555,0.00084775,-0.00000154,-0.00000138,-0.00000284,0.0000004
 9,0.00001679,0.00000074,-0.00000748,0.00019175,0.00001506,0.00014892,0
 .00003942,0.00001452,-0.00065117,0.00139396,0.00271382,-0.00006020,-0.
 00018887,-0.00006152,0.00069186,-0.00039494,-0.00032844,-0.00000693,0.
 00001549,-0.00001423,0.00001240,-0.00000282,-0.00000472,-0.00000115,0.
 00000132,0.00000998,0.00007948,0.00001631,-0.00004801,0.00007895,0.000
 19123,0.00008202,0.00013709,-0.00003519,0.00011567,0.00001674,0.000012
 52,0.00000612,-0.00001811,-0.00001467,0.00000795,-0.00000252,0.0000211
 1,0.00001459,-0.00004317,0.00001897,0.00001890,0.00002326,-0.00000822,
 0.00000323,0.00003405,0.00000629,0.00001361,0.00013358,-0.00003825,0.0
 0009575,-0.00002354,-0.00001818,-0.00001819,-0.00018222,0.00004032,-0.
 00014919,-0.00127386,-0.00148578,0.00064087,0.00378736,-0.00381939,0.0
 0072547,0.00199767,0.00062380,0.00162041,-0.00214939,0.00404229,-0.027
 05128,-0.00124371,0.00017024,0.00058930,0.00236333,-0.00292666,-0.0043
 7174,-0.00014139,0.00009147,-0.00014575,-0.00005674,-0.00002529,-0.000
 00521,0.00014007,-0.00003598,0.00002505,0.00005602,0.00002153,-0.00000
 774,-0.00001092,0.00001264,-0.00000735,-0.00003624,-0.00001357,0.00002
 073,0.00000993,0.00001189,-0.00002272,-0.00000024,-0.00000620,0.000002
 46,-0.00001937,-0.00001588,0.00003032,-0.00003387,-0.00000100,-0.00000
 632,0.00000063,0.00000108,0.00000262,0.00002154,-0.00000381,0.00000245
 ,-0.00002206,0.00000536,-0.00000360,0.00000251,0.00000086,0.00000020,-
 0.00000152,0.00000068,-0.00000199,-0.00004107,-0.00000291,-0.00001280,
 0.00003817,-0.00000342,0.00000412,-0.00003972,0.00003192,-0.00007827,0
 .00003354,-0.00000658,0.00000898,-0.00011134,0.00002989,0.00002020,0.0
 6121393,-0.08927256,0.10462433,0.00000918,-0.00000237,0.00000842,-0.00
 000061,0.00000054,-0.00000056,-0.00000245,0.00000077,-0.00000587,-0.00
 001878,0.00000796,-0.00000370,-0.00000039,-0.00000108,-0.00000132,0.00
 003877,-0.00007607,-0.00002798,0.00006114,0.00001415,-0.00000262,-0.00
 000706,0.00003118,-0.00000008,0.00001175,0.00000450,-0.00000403,-0.000
 00005,0.00002020,0.00000326,-0.00000264,-0.00000227,0.00000176,0.00000
 971,-0.00000107,0.00000050,-0.00005139,-0.00020493,0.00009830,-0.00000
 040,-0.00000113,-0.00000102,-0.00000279,0.00000201,0.00000151,-0.00004
 108,0.00014818,-0.00002743,0.00000165,0.00001095,0.00001877,-0.0000864
 1,-0.00017741,-0.00037209,-0.00000966,-0.00002592,-0.00000676,-0.00000
 811,0.00010241,-0.00003850,-0.00000494,0.00000724,-0.00000547,0.000006
 57,-0.00000051,-0.00000337,0.00000068,0.00000086,0.00000192,-0.0000233
 1,0.00003317,0.00000637,-0.00003234,0.00003739,-0.00002837,0.00003034,
 -0.00001821,0.00001445,0.00000897,-0.00000018,-0.00000137,-0.00000047,
 -0.00000399,0.00000441,-0.00000252,0.00000331,0.00000097,-0.00000160,0
 .00000446,0.00000697,0.00000126,0.00000123,-0.00000244,0.00000570,-0.0
 0000189,-0.00000036,0.00001013,0.00000626,0.00003247,-0.00000631,-0.00
 000499,-0.00000217,0.00001479,-0.00003780,0.00000308,0.00000854,-0.000
 14080,-0.00022488,0.00030965,0.00000626,-0.00001578,-0.00079492,0.0008
 7674,0.00137714,-0.00405212,0.00074242,-0.00074481,0.00046760,-0.00082
 045,-0.00003514,0.00059435,-0.00042503,-0.00001553,0.00006509,-0.00004
 294,-0.00000203,-0.00000394,0.00000423,0.00001291,-0.00002174,0.000013
 31,-0.00000446,0.00001469,0.00000935,-0.00002452,-0.00000229,0.0000041
 9,-0.00000049,-0.00001679,-0.00000414,0.00000923,0.00000563,0.00000353
 ,-0.00000806,0.00000006,-0.00000267,0.00000166,-0.00000843,-0.00000573
 ,0.00001134,-0.00001376,-0.00000263,0.00000105,0.00000040,0.00000113,0
 .00000171,0.00000627,-0.00000198,0.00000199,-0.00000680,0.00000495,-0.
 00000596,0.00000024,-0.00000018,0.00000081,-0.00000100,-0.00000020,0.0
 0000044,-0.00001134,-0.00000170,0.00000144,0.00000997,-0.00000080,0.00
 000063,-0.00001173,0.00001035,-0.00002188,0.00001263,-0.00000233,0.000
 00334,-0.00005583,-0.00000942,0.00002998,-0.23609395,0.00013465,-0.072
 98211,0.24488913,-0.00001592,-0.00000043,-0.00000563,-0.00000180,0.000
 00114,-0.00000432,0.00000147,-0.00000268,0.00000627,0.00003019,0.00000
 075,-0.00000998,0.00000017,0.00000563,-0.00000149,-0.00010680,0.000138
 31,-0.00002898,0.00001653,0.00012783,0.00000632,-0.00001028,-0.0000083
 8,-0.00000947,-0.00000251,0.00000407,0.00000152,0.00003362,-0.00005587
 ,-0.00004551,-0.00000056,0.00000630,-0.00000906,-0.00000610,-0.0000049
 0,0.00000725,-0.00005397,0.00002180,0.00007841,0.00000037,0.00000219,-
 0.00000063,0.00000168,0.00000081,-0.00000818,0.00015093,-0.00025339,0.
 00001476,0.00001066,-0.00000346,0.00001010,0.00048440,0.00033135,0.000
 74515,0.00000981,0.00001489,-0.00000495,0.00010340,0.00001868,0.000074
 84,0.00001348,-0.00000501,-0.00000154,-0.00001008,-0.00000394,0.000007
 22,-0.00000374,0.00000133,0.00000416,0.00001356,-0.00002701,0.00000964
 ,0.00004154,-0.00005700,0.00001551,-0.00004366,0.00001556,-0.00003241,
 -0.00000061,-0.00000494,0.00001178,-0.00000163,0.00000155,-0.00001043,
 0.00000309,0.00000102,-0.00000452,-0.00001319,0.00001484,-0.00001560,0
 .00001348,-0.00001237,0.00001182,0.00000559,-0.00000839,-0.00000022,-0
 .00008370,0.00000265,0.00001274,0.00003358,-0.00001089,0.00000790,0.00
 001558,0.00005506,0.00004360,-0.00008957,-0.00000152,0.00005643,-0.000
 05331,-0.00026211,0.00008518,0.00085868,-0.00031976,-0.00118815,0.0043
 3415,0.00116549,0.00182681,-0.00069393,0.00028934,-0.00074670,-0.00020
 390,0.00002021,-0.00006223,-0.00001554,-0.00002365,0.00005823,-0.00001
 048,0.00003180,-0.00001915,-0.00001838,-0.00003417,0.00000589,-0.00002
 445,0.00000172,-0.00002004,0.00000018,-0.00000444,0.00000784,0.0000010
 9,-0.00000548,0.00000492,-0.00000024,0.00000515,-0.00001006,-0.0000033
 4,-0.00000246,0.00000106,0.00000136,-0.00000168,0.00000269,0.00001036,
 0.00001263,-0.00001503,-0.00000014,-0.00000117,-0.00000217,0.00000330,
 0.00000256,-0.00000544,-0.00000723,-0.00001076,0.00001930,0.00000239,0
 .00000225,-0.00000287,0.00000160,0.00000171,-0.00000350,-0.00000615,0.
 00000481,-0.00001548,0.00000730,-0.00000052,0.00000020,0.00001619,0.00
 000274,-0.00000121,-0.00000588,-0.00000004,0.00000013,0.00001274,-0.00
 000322,-0.00001658,0.01904329,-0.02749323,0.01235481,-0.00105326,0.026
 46406,-0.00000487,0.00001447,-0.00000190,0.00000165,-0.00000435,-0.000
 00124,0.00000084,-0.00000134,0.00000285,-0.00000817,-0.00000831,0.0000
 0621,0.00000040,0.00000075,0.00000072,-0.00003409,0.00002533,0.0000871
 0,-0.00005251,-0.00000835,0.00001375,0.00001885,-0.00003887,0.00000323
 ,0.00000352,0.00001726,-0.00000027,0.00000060,0.00001627,0.00000826,0.
 00000168,0.00000151,-0.00000148,-0.00000454,0.00000194,0.00000419,0.00
 011062,0.00007186,-0.00008918,0.00000011,0.00000022,-0.00000006,0.0000
 0302,-0.00000273,-0.00000126,0.00003625,0.00014357,-0.00011617,0.00000
 801,-0.00001166,0.00002038,-0.00030970,0.00002431,0.00013451,-0.000010
 87,-0.00000049,0.00008456,0.00012354,-0.00021278,-0.00015845,0.0000030
 2,-0.00000581,0.00000290,-0.00000456,-0.00000048,0.00000327,0.00000086
 ,-0.00000097,-0.00000067,0.00002975,-0.00004382,-0.00000710,-0.0000061
 9,-0.00004761,0.00001834,0.00000589,-0.00001106,-0.00002721,-0.0000013
 4,0.00000298,0.00000387,0.00000136,0.00000542,-0.00000581,0.00000528,-
 0.00000107,-0.00000509,0.00000087,0.00000267,-0.00000720,0.00000356,-0
 .00000497,0.00000440,-0.00000015,-0.00000344,-0.00000288,-0.00005294,0
 .00001317,0.00000924,0.00001355,-0.00000288,0.00000233,0.00004289,0.00
 000755,0.00002735,-0.00008992,0.00018267,0.00009471,-0.00026591,-0.000
 50937,0.00017900,0.00093903,-0.00062296,-0.00076909,0.00627855,-0.0000
 8797,0.00072755,0.00006641,0.00050450,-0.00005917,-0.00033915,0.000464
 87,-0.00059313,-0.00006457,0.00000382,-0.00001840,-0.00000710,-0.00003
 136,0.00001855,0.00005865,0.00000554,-0.00000598,-0.00000264,-0.000009
 81,0.00003055,0.00000357,-0.00000065,-0.00000272,0.00001582,0.00000570
 ,-0.00001133,-0.00000387,-0.00000067,0.00000807,0.00000081,0.00000175,
 -0.00000165,0.00000384,0.00000329,-0.00000658,0.00000671,0.00000245,-0
 .00000230,-0.00000027,-0.00000073,-0.00000103,-0.00000088,0.00000119,-
 0.00000215,0.00000066,-0.00000326,0.00000624,0.00000064,0.00000101,-0.
 00000133,0.00000009,-0.00000058,-0.00000099,0.00000169,0.00000176,-0.0
 0000505,-0.00000071,0.00000024,-0.00000047,0.00001069,-0.00000174,0.00
 000203,-0.00000551,0.00000074,-0.00000123,0.00001728,0.00002244,-0.000
 01094,-0.09145694,0.00515567,-0.03659174,0.07536306,-0.00551759,0.0358
 4392,-0.00001203,0.00001306,-0.00001626,-0.00000134,-0.00000039,-0.000
 00287,0.00000595,0.00000112,0.00000622,0.00001464,0.00000910,0.0000193
 5,0.00000036,0.00000095,-0.00000049,-0.00010298,-0.00008501,-0.0000864
 7,0.00001468,-0.00009632,0.00004429,-0.00000369,0.00001442,-0.00000223
 ,-0.00002768,-0.00000920,-0.00000036,-0.00002841,0.00003298,0.00001943
 ,0.00000609,0.00000370,-0.00000297,-0.00001560,-0.00000416,0.00000253,
 -0.00004760,0.00013138,-0.00000286,0.00000052,0.00000198,0.00000035,0.
 00000134,0.00000508,-0.00000487,0.00002776,0.00024244,0.00003187,-0.00
 000503,0.00000431,0.00001324,-0.00010662,-0.00085374,-0.00027947,-0.00
 000038,-0.00003469,0.00015445,0.00004900,0.00016418,-0.00030357,0.0000
 1057,-0.00000414,0.00000237,-0.00001010,-0.00000210,0.00000625,-0.0000
 0432,-0.00000180,-0.00000070,0.00000872,-0.00001545,0.00000167,-0.0000
 0054,-0.00001132,0.00001124,-0.00000207,0.00004521,-0.00001092,-0.0000
 0684,0.00000013,0.00000419,0.00000162,0.00000127,-0.00000826,-0.000000
 54,0.00000546,-0.00000540,-0.00001484,0.00002122,0.00000232,0.00000684
 ,-0.00000621,0.00000656,0.00000255,-0.00001672,0.00000557,-0.00002624,
 0.00001019,-0.00001275,0.00000699,-0.00000263,-0.00000145,-0.00002621,
 0.00002770,0.00003347,-0.00005113,-0.00000688,0.00009535,-0.00012400,0
 .00001646,-0.00007968,0.00015307,0.00002253,-0.00015964,0.00126666,0.0
 0099269,-0.00202981,0.00094964,0.00054610,0.00083969,-0.00001982,0.000
 12048,0.00015951,0.00012488,-0.00017064,0.00003593,-0.00002412,-0.0000
 0270,0.00004081,-0.00000742,0.00002797,0.00000024,-0.00001996,-0.00000
 172,0.00000777,-0.00000129,-0.00000654,0.00000299,0.00000767,0.0000024
 3,-0.00000536,-0.00000440,0.00000351,-0.00000292,-0.00000199,-0.000001
 60,-0.00000105,0.00000484,0.00000194,-0.00000346,0.00001464,0.00001020
 ,-0.00001002,-0.00000049,-0.00000156,-0.00000199,-0.00000210,0.0000028
 6,-0.00000424,0.00000111,-0.00001018,0.00001493,0.00000080,0.00000143,
 -0.00000267,0.00000077,0.00000155,-0.00000194,0.00000244,0.00000621,-0
 .00001078,-0.00000282,-0.00000009,0.00000007,0.00000721,-0.00000870,0.
 00001952,-0.00001060,0.00000145,-0.00000190,-0.00001974,0.00000135,0.0
 0000058,-0.03674311,-0.02870578,0.00771941,-0.00519697,-0.02273539,0.0
 0954377,0.03998168,0.00003794,-0.00001226,0.00001801,0.00000273,0.0000
 0041,0.00001106,-0.00000205,0.00000151,-0.00000926,-0.00002157,-0.0000
 2541,-0.00000594,0.00000039,-0.00000850,0.00000249,0.00024220,-0.00002
 568,0.00014343,-0.00015446,-0.00004855,0.00007726,0.00001452,0.0000040
 1,0.00003050,0.00000675,0.00000515,-0.00000990,0.00002324,-0.00005306,
 0.00001390,-0.00000237,-0.00001000,0.00001339,0.00001015,0.00000583,-0
 .00001004,-0.00007653,0.00021106,-0.00031467,-0.00000030,-0.00000357,0
 .00000193,-0.00000028,-0.00000934,0.00001572,-0.00016421,-0.00014176,-
 0.00000016,-0.00002692,-0.00001339,-0.00005335,-0.00020043,-0.00093878
 ,-0.00089376,0.00004968,0.00010889,-0.00021871,-0.00014350,0.00010765,
 0.00000944,-0.00002199,0.00000748,0.00000288,0.00001865,0.00000738,-0.
 00001402,0.00000756,0.00000002,-0.00000692,-0.00001805,0.00001518,0.00
 001958,-0.00003767,0.00002508,-0.00001952,0.00000636,-0.00002430,0.000
 04207,-0.00000165,0.00000855,-0.00002643,-0.00000067,-0.00000354,0.000
 01566,-0.00000016,-0.00000427,0.00001213,0.00001977,-0.00004361,0.0000
 0675,-0.00002685,0.00002247,-0.00001933,-0.00002014,0.00002403,-0.0000
 0858,0.00012074,-0.00000825,-0.00004572,-0.00003533,0.00002267,-0.0000
 0608,0.00005482,-0.00007344,0.00003761,0.00005643,0.00015467,-0.000182
 55,0.00001453,0.00026648,0.00014855,-0.00010985,0.00044976,0.00041377,
 -0.00123933,-0.00328725,0.00257302,0.00002483,-0.00278108,-0.00066568,
 -0.00034813,0.00069849,-0.00019497,0.00006267,0.00017876,0.00006578,0.
 00002751,-0.00000383,-0.00007184,-0.00007056,-0.00001352,-0.00001550,0
 .00002886,-0.00000418,-0.00001327,0.00000169,0.00000748,-0.00000717,-0
 .00000584,0.00000100,0.00000205,0.00000252,-0.00000885,0.00001608,0.00
 000506,0.00000504,-0.00000053,-0.00000185,0.00000216,-0.00000395,-0.00
 001702,-0.00002235,0.00002771,0.00000029,0.00000195,0.00000342,-0.0000
 0826,-0.00000451,0.00001017,0.00001454,0.00001799,-0.00003426,-0.00000
 470,-0.00000496,0.00000622,-0.00000193,-0.00000316,0.00000697,0.000017
 38,-0.00000796,0.00003071,-0.00001848,0.00000123,-0.00000087,-0.000008
 60,-0.00001032,0.00001410,0.00000854,0.00000047,-0.00000069,0.00001846
 ,-0.00002704,0.00000732,-0.04923595,-0.21542908,0.07941432,0.00082621,
 -0.00014736,0.00049077,0.05030061,0.22084030,-0.00001229,0.00001885,-0
 .00001798,-0.00000241,-0.00000202,-0.00000002,0.00000608,0.00000193,0.
 00000452,-0.00001870,0.00000161,0.00001760,0.00000138,-0.00000171,0.00
 000226,0.00012252,-0.00017489,0.00005047,0.00001464,-0.00007526,0.0001
 5024,0.00002502,0.00003477,0.00003477,-0.00001238,-0.00000189,0.000010
 96,0.00001868,-0.00000290,0.00002647,0.00000379,-0.00000220,0.00000354
 ,-0.00000939,0.00000016,-0.00000186,-0.00007622,0.00001934,-0.00033730
 ,0.00000059,0.00000010,0.00000134,0.00000164,0.00000562,0.00000279,0.0
 0000329,0.00012538,-0.00007710,-0.00001245,0.00001788,0.00000952,-0.00
 026928,-0.00062642,-0.00178844,0.00002431,0.00002178,0.00006028,-0.000
 46796,0.00060756,0.00000469,0.00000177,-0.00000111,0.00000596,-0.00000
 286,0.00000185,-0.00000005,-0.00000056,-0.00000159,-0.00000595,-0.0000
 1899,-0.00000495,0.00000753,0.00001508,0.00001735,-0.00001001,0.000018
 42,-0.00000491,0.00001168,-0.00000940,0.00000020,-0.00001021,0.0000021
 1,0.00000085,0.00000102,-0.00000113,0.00000150,0.00000361,0.00000586,-
 0.00000493,0.00000361,-0.00001045,0.00000807,-0.00000522,-0.00000677,-
 0.00000017,-0.00000002,0.00004573,-0.00000903,-0.00002566,-0.00001207,
 0.00000897,-0.00000333,0.00003811,-0.00000125,-0.00003069,-0.00013608,
 -0.00008015,-0.00002236,0.00020248,0.00002503,0.00024132,-0.00056232,0
 .00024036,0.00029081,-0.00134060,-0.00370701,0.00202177,-0.00000657,-0
 .00231234,0.00054439,-0.00047790,0.00029815,-0.00063097,0.00020333,-0.
 00005871,0.00008813,0.00004462,-0.00001104,0.00002760,-0.00012631,0.00
 002354,-0.00000960,-0.00002200,-0.00000867,-0.00000005,-0.00000154,-0.
 00000936,0.00000533,0.00001234,0.00000676,-0.00000774,-0.00000282,-0.0
 0000366,0.00000574,-0.00000061,0.00000014,-0.00000057,0.00000754,0.000
 00582,-0.00001056,0.00000948,-0.00000084,0.00000450,0.00000031,-0.0000
 0077,-0.00000033,-0.00000866,0.00000075,0.00000095,0.00000985,-0.00000
 011,-0.00000397,-0.00000161,-0.00000135,0.00000050,-0.00000013,0.00000
 024,0.00000126,0.00001458,-0.00000089,0.00000932,-0.00001484,0.0000011
 9,-0.00000088,0.00000194,-0.00000681,0.00000842,-0.00001076,0.00000252
 ,-0.00000343,0.00004601,-0.00004072,0.00000187,0.02094188,0.09418384,-
 0.04297515,-0.00239874,-0.00767337,0.00116314,-0.01578860,-0.08085107,
 0.04115152\\-0.00000014,0.00000035,-0.00000049,-0.00000003,0.00000067,
 0.00000032,0.00000250,0.00000163,-0.00000080,-0.00000043,0.00000416,0.
 00000179,0.00000138,0.00000118,-0.00000028,0.00000025,-0.00000272,-0.0
 0000009,0.00000199,0.00001155,-0.00001007,-0.00000276,-0.00000027,0.00
 000239,0.00000307,-0.00000202,-0.00000095,-0.00000089,0.00000294,-0.00
 000259,0.00000114,-0.00000011,0.00000192,-0.00000123,-0.00000116,-0.00
 000104,-0.00000498,-0.00000920,0.00000581,0.00000029,-0.00000021,0.000
 00081,-0.00000040,-0.00000201,0.00000054,0.00000026,0.00000633,-0.0000
 0780,0.00000676,-0.00000539,0.00000003,-0.00001271,-0.00001002,0.00001
 417,0.00000006,0.00000259,-0.00000504,0.00000295,0.00000155,0.00000144
 ,-0.00000420,-0.00000227,0.00000535,-0.00000020,0.00000121,-0.00000053
 ,0.00000081,0.00000139,-0.00000024,-0.00000799,-0.00000159,0.00000082,
 0.00000557,-0.00000654,0.00000019,-0.00000302,0.00000224,-0.00000371,-
 0.00000220,0.00000330,-0.00000230,0.00000159,0.00000201,0.00000015,0.0
 0000210,-0.00000242,-0.00000074,-0.00000202,-0.00000732,-0.00001028,0.
 00000155,0.00000156,0.00000245,0.00000140,0.00000109,0.00000107,-0.000
 01136,0.00000514,0.00000683,0.00000455,-0.00000182,0.00000179,-0.00000
 209,-0.00000317,-0.00000066,-0.00000548,0.00001468,0.00000674,0.000008
 41,-0.00000087,-0.00000785,0.00000362,-0.00001123,0.00001235,-0.000001
 00,0.00002637,-0.00001609,0.00000292,-0.00000416,-0.00000210,-0.000006
 50,-0.00001403,-0.00000609,0.00000858,-0.00000448,0.00001401,0.0000001
 2,0.00000331,0.00000332,0.00000096,-0.00000116,-0.00000581,0.00000086,
 -0.00000227,0.00000286,-0.00000045,0.00000046,-0.00000043,-0.00000239,
 0.00000128,-0.00000237,-0.00000124,0.00000106,-0.00000096,0.00000142,0
 .00000216,-0.00000036,0.00000029,0.00000030,0.00000044,-0.00000070,-0.
 00000136,0.00000069,-0.00000073,0.00000213,-0.00000080,-0.00000013,-0.
 00000083,0.00000148,0.00000321,-0.00000153,-0.00000074,0.00000064,-0.0
 0000043,0.00000226,0.00000085,-0.00000144,0.00000163,-0.00000177,-0.00
 000024,-0.00000447,-0.00000072,-0.00000097,0.00000196,0.00000286,-0.00
 000136,-0.00000134,0.00000043,0.00000012,-0.00000019,-0.00000317,0.000
 00536,-0.00000063,0.00000623,-0.00000423,0.00000823,0.00000112,0.00000
 079,-0.00000266,0.00000016,-0.00000007,-0.00000337\\\@
 The archive entry for this job was punched.


 ALTHOUGH J.J. COULD DIAGNOSE THE FAULTS OF AN
 APPARATUS WITH UNCANNY ACCURACY, IT WAS JUST AS
 WELL NOT TO LET HIM HANDLE IT.
   -- GEORGE THOMPSON, ABOUT HIS FATHER
 Job cpu time:       5 days 18 hours 32 minutes 21.4 seconds.
 Elapsed time:       0 days  6 hours  4 minutes 13.4 seconds.
 File lengths (MBytes):  RWF=  13270 Int=      0 D2E=      0 Chk=    132 Scr=      2
 Normal termination of Gaussian 16 at Mon Feb 13 23:40:24 2023.
