 Entering Gaussian System, Link 0=/apps/GAU16/avx2/g16/g16
 Initial command:
 /apps/GAU16/avx2//g16/l1.exe "/localscratch/chegho/Gau-65918.inp" -scrdir="/localscratch/chegho/"
 Entering Link 1 = /apps/GAU16/avx2//g16/l1.exe PID=     65921.
  
 Copyright (c) 1988-2019, Gaussian, Inc.  All Rights Reserved.
  
 This is part of the Gaussian(R) 16 program.  It is based on
 the Gaussian(R) 09 system (copyright 2009, Gaussian, Inc.),
 the Gaussian(R) 03 system (copyright 2003, Gaussian, Inc.),
 the Gaussian(R) 98 system (copyright 1998, Gaussian, Inc.),
 the Gaussian(R) 94 system (copyright 1995, Gaussian, Inc.),
 the Gaussian 92(TM) system (copyright 1992, Gaussian, Inc.),
 the Gaussian 90(TM) system (copyright 1990, Gaussian, Inc.),
 the Gaussian 88(TM) system (copyright 1988, Gaussian, Inc.),
 the Gaussian 86(TM) system (copyright 1986, Carnegie Mellon
 University), and the Gaussian 82(TM) system (copyright 1983,
 Carnegie Mellon University). Gaussian is a federally registered
 trademark of Gaussian, Inc.
  
 This software contains proprietary and confidential information,
 including trade secrets, belonging to Gaussian, Inc.
  
 This software is provided under written license and may be
 used, copied, transmitted, or stored only in accord with that
 written license.
  
 The following legend is applicable only to US Government
 contracts under FAR:
  
                    RESTRICTED RIGHTS LEGEND
  
 Use, reproduction and disclosure by the US Government is
 subject to restrictions as set forth in subparagraphs (a)
 and (c) of the Commercial Computer Software - Restricted
 Rights clause in FAR 52.227-19.
  
 Gaussian, Inc.
 340 Quinnipiac St., Bldg. 40, Wallingford CT 06492
  
  
 ---------------------------------------------------------------
 Warning -- This program may not be used in any manner that
 competes with the business of Gaussian, Inc. or will provide
 assistance to any competitor of Gaussian, Inc.  The licensee
 of this program is prohibited from giving any competitor of
 Gaussian, Inc. access to this program.  By using this program,
 the user acknowledges that Gaussian, Inc. is engaged in the
 business of creating and licensing software in the field of
 computational chemistry and represents and warrants to the
 licensee that it is not a competitor of Gaussian, Inc. and that
 it will not use this program in any manner prohibited above.
 ---------------------------------------------------------------
  

 Cite this work as:
 Gaussian 16, Revision C.01,
 M. J. Frisch, G. W. Trucks, H. B. Schlegel, G. E. Scuseria, 
 M. A. Robb, J. R. Cheeseman, G. Scalmani, V. Barone, 
 G. A. Petersson, H. Nakatsuji, X. Li, M. Caricato, A. V. Marenich, 
 J. Bloino, B. G. Janesko, R. Gomperts, B. Mennucci, H. P. Hratchian, 
 J. V. Ortiz, A. F. Izmaylov, J. L. Sonnenberg, D. Williams-Young, 
 F. Ding, F. Lipparini, F. Egidi, J. Goings, B. Peng, A. Petrone, 
 T. Henderson, D. Ranasinghe, V. G. Zakrzewski, J. Gao, N. Rega, 
 G. Zheng, W. Liang, M. Hada, M. Ehara, K. Toyota, R. Fukuda, 
 J. Hasegawa, M. Ishida, T. Nakajima, Y. Honda, O. Kitao, H. Nakai, 
 T. Vreven, K. Throssell, J. A. Montgomery, Jr., J. E. Peralta, 
 F. Ogliaro, M. J. Bearpark, J. J. Heyd, E. N. Brothers, K. N. Kudin, 
 V. N. Staroverov, T. A. Keith, R. Kobayashi, J. Normand, 
 K. Raghavachari, A. P. Rendell, J. C. Burant, S. S. Iyengar, 
 J. Tomasi, M. Cossi, J. M. Millam, M. Klene, C. Adamo, R. Cammi, 
 J. W. Ochterski, R. L. Martin, K. Morokuma, O. Farkas, 
 J. B. Foresman, and D. J. Fox, Gaussian, Inc., Wallingford CT, 2019.
 
 ******************************************
 Gaussian 16:  ES64L-G16RevC.01  3-Jul-2019
                13-Feb-2023 
 ******************************************
 %nprocshared=48
 Will use up to   48 processors via shared memory.
 %chk=Mo19S42_f_H2S_i1.chk
 %mem=100GB
 ---------------------------------------------------------
 # opt freq b3lyp/gen nosymm pseudo=read scf=maxcycles=500
 ---------------------------------------------------------
 1/18=20,19=15,26=3,38=1/1,3;
 2/9=110,12=2,15=1,17=6,18=5,40=1/2;
 3/5=7,11=2,16=1,17=8,25=1,30=1,71=1,74=-5/1,2,3;
 4//1;
 5/5=2,7=500,38=5/2;
 6/7=2,8=2,9=2,10=2,28=1/1;
 7/30=1/1,2,3,16;
 1/18=20,19=15,26=3/3(2);
 2/9=110,15=1/2;
 99//99;
 2/9=110,15=1/2;
 3/5=7,6=1,11=2,16=1,17=8,25=1,30=1,71=1,74=-5,82=7/1,2,3;
 4/5=5,16=3,69=1/1;
 5/5=2,7=500,38=5/2;
 7/30=1/1,2,3,16;
 1/18=20,19=15,26=3/3(-5);
 2/9=110,15=1/2;
 6/7=2,8=2,9=2,10=2,19=2,28=1/1;
 99/9=1/99;
 -------------------
 Title Card Required
 -------------------
 Symbolic Z-matrix:
 Charge =  0 Multiplicity = 1
 42                    0.17729   1.34518   12.67839 
 16                    2.17032   2.30845   13.73072 
 16                   -0.93764   2.12792   14.84275 
 16                   -0.56239   0.93558   10.40358 
 16                    1.83881  -0.38744   12.13156 
 42                   -2.159     2.63031   11.03893 
 16                   -2.94765   2.37426   8.72027 
 16                   -0.23344   3.63738   12.08525 
 42                    0.83687   2.89833   10.01165 
 16                    0.02281   2.61042   7.71059 
 16                    2.49941   1.1829    9.43145 
 42                    3.2702    1.52208   11.71106 
 42                   -1.55114   4.35996   8.36274 
 16                    5.35032   2.47283   12.88145 
 16                    2.85459   3.81954   11.06925 
 16                   -2.59159   4.95933   10.46949 
 16                    1.23805   6.85387   6.49963 
 42                   -4.51554   4.04535   9.39323 
 16                   -5.90789   1.97815   9.59076 
 16                   -5.73569   4.64248   11.24719 
 42                    2.42909   0.03783   14.41516 
 16                    4.54058  -0.98705   14.83643 
 16                    1.5018    0.8329    16.40641 
 42                    1.4556    4.50868   7.35022 
 16                    0.56015   4.24158   4.98141 
 16                    0.44482   5.23611   9.41775 
 42                    3.91107   3.10555   9.00071 
 16                    3.11597   2.79136   6.73138 
 16                    3.43763   5.4226    8.43755 
 42                    4.46456   4.74264   6.41427 
 16                    6.6525    4.01792   6.01029 
 16                    4.24675   6.90013   5.67014 
 42                    2.30806   5.83246   4.48983 
 16                    3.81147   4.22765   4.04592 
 16                   -1.31687   7.19836   4.00147 
 42                   -0.97021   6.03454   5.73238 
 16                   -2.52358   4.21141   5.99308 
 16                   -1.73872   6.88486   7.8406 
 42                   -3.7202    6.13059   6.77185 
 16                   -5.53766   4.66297   7.4498 
 16                   -4.50254   7.25281   5.15934 
 42                   -5.31104   2.20321   11.75501 
 16                   -3.48224   3.2471    13.08519 
 16                   -3.57184   0.57109   11.52353 
 42                   -2.76263   0.97983   13.83245 
 16                   -1.23248  -0.72089   13.17951 
 16                   -4.26538   0.32022   15.1624 
 42                   -0.49074  -0.18666   15.42342 
 16                    1.15745  -1.87984   14.82464 
 16                   -1.48764  -1.05539   17.07707 
 42                    5.66687   0.18559   13.2688 
 16                    5.00989  -0.34079   11.11543 
 16                    8.27854   1.33456   10.99952 
 42                    6.23161   1.78821   10.66482 
 16                    5.68137   1.26704   8.32554 
 16                    6.01575   4.14651   10.05305 
 42                    6.95506   3.19236   8.12598 
 16                    9.03993   2.85956   8.30252 
 16                    2.05363   6.8568    2.65249 
 16                    7.72339  -0.24857   13.60592 
 16                   -6.97621   1.50211   12.86338 
 16                   -4.81038   7.69802   8.69028 
 1                    -6.19472   5.71908   7.97459 
 1                    -4.51909   8.93163   8.22247 
 

 GradGradGradGradGradGradGradGradGradGradGradGradGradGradGradGradGradGrad
 Berny optimization.
 Initialization pass.
                           ----------------------------
                           !    Initial Parameters    !
                           ! (Angstroms and Degrees)  !
 --------------------------                            --------------------------
 ! Name  Definition              Value          Derivative Info.                !
 --------------------------------------------------------------------------------
 ! R1    R(1,2)                  2.451          estimate D2E/DX2                !
 ! R2    R(1,3)                  2.5574         estimate D2E/DX2                !
 ! R3    R(1,4)                  2.4269         estimate D2E/DX2                !
 ! R4    R(1,5)                  2.462          estimate D2E/DX2                !
 ! R5    R(1,8)                  2.4031         estimate D2E/DX2                !
 ! R6    R(1,46)                 2.5509         estimate D2E/DX2                !
 ! R7    R(2,12)                 2.4305         estimate D2E/DX2                !
 ! R8    R(2,21)                 2.3856         estimate D2E/DX2                !
 ! R9    R(3,45)                 2.3811         estimate D2E/DX2                !
 ! R10   R(3,48)                 2.4278         estimate D2E/DX2                !
 ! R11   R(4,6)                  2.4135         estimate D2E/DX2                !
 ! R12   R(4,9)                  2.4421         estimate D2E/DX2                !
 ! R13   R(5,12)                 2.4232         estimate D2E/DX2                !
 ! R14   R(5,21)                 2.3967         estimate D2E/DX2                !
 ! R15   R(6,7)                  2.4625         estimate D2E/DX2                !
 ! R16   R(6,8)                  2.4118         estimate D2E/DX2                !
 ! R17   R(6,16)                 2.4363         estimate D2E/DX2                !
 ! R18   R(6,43)                 2.5137         estimate D2E/DX2                !
 ! R19   R(6,44)                 2.5439         estimate D2E/DX2                !
 ! R20   R(7,13)                 2.4538         estimate D2E/DX2                !
 ! R21   R(7,18)                 2.3882         estimate D2E/DX2                !
 ! R22   R(8,9)                  2.4478         estimate D2E/DX2                !
 ! R23   R(9,10)                 2.4577         estimate D2E/DX2                !
 ! R24   R(9,11)                 2.4583         estimate D2E/DX2                !
 ! R25   R(9,15)                 2.4573         estimate D2E/DX2                !
 ! R26   R(9,26)                 2.4437         estimate D2E/DX2                !
 ! R27   R(10,13)                2.442          estimate D2E/DX2                !
 ! R28   R(10,24)                2.4054         estimate D2E/DX2                !
 ! R29   R(11,12)                2.4302         estimate D2E/DX2                !
 ! R30   R(11,27)                2.4238         estimate D2E/DX2                !
 ! R31   R(12,14)                2.5692         estimate D2E/DX2                !
 ! R32   R(12,15)                2.4214         estimate D2E/DX2                !
 ! R33   R(12,52)                2.6176         estimate D2E/DX2                !
 ! R34   R(13,16)                2.4249         estimate D2E/DX2                !
 ! R35   R(13,26)                2.4217         estimate D2E/DX2                !
 ! R36   R(13,37)                2.5657         estimate D2E/DX2                !
 ! R37   R(13,38)                2.5851         estimate D2E/DX2                !
 ! R38   R(14,51)                2.3413         estimate D2E/DX2                !
 ! R39   R(14,54)                2.4817         estimate D2E/DX2                !
 ! R40   R(15,27)                2.43           estimate D2E/DX2                !
 ! R41   R(16,18)                2.3865         estimate D2E/DX2                !
 ! R42   R(17,24)                2.5041         estimate D2E/DX2                !
 ! R43   R(17,33)                2.4955         estimate D2E/DX2                !
 ! R44   R(17,36)                2.4772         estimate D2E/DX2                !
 ! R45   R(18,19)                2.5002         estimate D2E/DX2                !
 ! R46   R(18,20)                2.2984         estimate D2E/DX2                !
 ! R47   R(18,40)                2.281          estimate D2E/DX2                !
 ! R48   R(18,42)                3.0991         estimate D2E/DX2                !
 ! R49   R(19,42)                2.2563         estimate D2E/DX2                !
 ! R50   R(20,42)                2.5275         estimate D2E/DX2                !
 ! R51   R(21,22)                2.3846         estimate D2E/DX2                !
 ! R52   R(21,23)                2.336          estimate D2E/DX2                !
 ! R53   R(21,48)                3.0972         estimate D2E/DX2                !
 ! R54   R(21,49)                2.3371         estimate D2E/DX2                !
 ! R55   R(22,51)                2.2586         estimate D2E/DX2                !
 ! R56   R(23,48)                2.4446         estimate D2E/DX2                !
 ! R57   R(24,25)                2.5465         estimate D2E/DX2                !
 ! R58   R(24,26)                2.4136         estimate D2E/DX2                !
 ! R59   R(24,28)                2.4676         estimate D2E/DX2                !
 ! R60   R(24,29)                2.4384         estimate D2E/DX2                !
 ! R61   R(25,33)                2.4141         estimate D2E/DX2                !
 ! R62   R(25,36)                2.474          estimate D2E/DX2                !
 ! R63   R(27,28)                2.425          estimate D2E/DX2                !
 ! R64   R(27,29)                2.4311         estimate D2E/DX2                !
 ! R65   R(27,30)                3.1106         estimate D2E/DX2                !
 ! R66   R(27,55)                2.6401         estimate D2E/DX2                !
 ! R67   R(27,56)                2.5731         estimate D2E/DX2                !
 ! R68   R(28,30)                2.3931         estimate D2E/DX2                !
 ! R69   R(29,30)                2.3687         estimate D2E/DX2                !
 ! R70   R(30,31)                2.34           estimate D2E/DX2                !
 ! R71   R(30,32)                2.2926         estimate D2E/DX2                !
 ! R72   R(30,33)                3.089          estimate D2E/DX2                !
 ! R73   R(30,34)                2.5101         estimate D2E/DX2                !
 ! R74   R(31,57)                2.2911         estimate D2E/DX2                !
 ! R75   R(32,33)                2.5083         estimate D2E/DX2                !
 ! R76   R(33,34)                2.2434         estimate D2E/DX2                !
 ! R77   R(33,59)                2.1189         estimate D2E/DX2                !
 ! R78   R(35,36)                2.1144         estimate D2E/DX2                !
 ! R79   R(36,37)                2.4093         estimate D2E/DX2                !
 ! R80   R(36,38)                2.3996         estimate D2E/DX2                !
 ! R81   R(36,39)                2.9415         estimate D2E/DX2                !
 ! R82   R(37,39)                2.392          estimate D2E/DX2                !
 ! R83   R(38,39)                2.3743         estimate D2E/DX2                !
 ! R84   R(39,40)                2.4324         estimate D2E/DX2                !
 ! R85   R(39,41)                2.1146         estimate D2E/DX2                !
 ! R86   R(39,62)                2.7066         estimate D2E/DX2                !
 ! R87   R(40,63)                1.35           estimate D2E/DX2                !
 ! R88   R(42,43)                2.4907         estimate D2E/DX2                !
 ! R89   R(42,44)                2.3963         estimate D2E/DX2                !
 ! R90   R(42,61)                2.1196         estimate D2E/DX2                !
 ! R91   R(43,45)                2.4933         estimate D2E/DX2                !
 ! R92   R(44,45)                2.4805         estimate D2E/DX2                !
 ! R93   R(45,46)                2.3791         estimate D2E/DX2                !
 ! R94   R(45,47)                2.1124         estimate D2E/DX2                !
 ! R95   R(45,48)                3.0089         estimate D2E/DX2                !
 ! R96   R(46,48)                2.423          estimate D2E/DX2                !
 ! R97   R(48,49)                2.4376         estimate D2E/DX2                !
 ! R98   R(48,50)                2.1173         estimate D2E/DX2                !
 ! R99   R(51,52)                2.3121         estimate D2E/DX2                !
 ! R100  R(51,54)                3.1094         estimate D2E/DX2                !
 ! R101  R(51,60)                2.1287         estimate D2E/DX2                !
 ! R102  R(52,54)                2.4957         estimate D2E/DX2                !
 ! R103  R(53,54)                2.1231         estimate D2E/DX2                !
 ! R104  R(54,55)                2.459          estimate D2E/DX2                !
 ! R105  R(54,56)                2.4459         estimate D2E/DX2                !
 ! R106  R(54,57)                2.9901         estimate D2E/DX2                !
 ! R107  R(55,57)                2.3171         estimate D2E/DX2                !
 ! R108  R(56,57)                2.3465         estimate D2E/DX2                !
 ! R109  R(57,58)                2.1186         estimate D2E/DX2                !
 ! R110  R(62,64)                1.3511         estimate D2E/DX2                !
 ! A1    A(2,1,3)               82.5796         estimate D2E/DX2                !
 ! A2    A(2,1,4)              135.7754         estimate D2E/DX2                !
 ! A3    A(2,1,5)               79.8152         estimate D2E/DX2                !
 ! A4    A(2,1,8)               82.5349         estimate D2E/DX2                !
 ! A5    A(2,1,46)             133.1062         estimate D2E/DX2                !
 ! A6    A(3,1,4)              135.4042         estimate D2E/DX2                !
 ! A7    A(3,1,5)              134.233          estimate D2E/DX2                !
 ! A8    A(3,1,8)               80.9341         estimate D2E/DX2                !
 ! A9    A(3,1,46)              80.8341         estimate D2E/DX2                !
 ! A10   A(4,1,5)               83.0341         estimate D2E/DX2                !
 ! A11   A(4,1,8)               82.9656         estimate D2E/DX2                !
 ! A12   A(4,1,46)              83.0502         estimate D2E/DX2                !
 ! A13   A(5,1,8)              137.0366         estimate D2E/DX2                !
 ! A14   A(5,1,46)              81.1769         estimate D2E/DX2                !
 ! A15   A(8,1,46)             136.6018         estimate D2E/DX2                !
 ! A16   A(1,2,12)              83.3414         estimate D2E/DX2                !
 ! A17   A(1,2,21)              80.6373         estimate D2E/DX2                !
 ! A18   A(12,2,21)             83.1871         estimate D2E/DX2                !
 ! A19   A(1,3,45)              80.0651         estimate D2E/DX2                !
 ! A20   A(1,3,48)              80.2337         estimate D2E/DX2                !
 ! A21   A(1,4,6)               80.5816         estimate D2E/DX2                !
 ! A22   A(1,4,9)               80.802          estimate D2E/DX2                !
 ! A23   A(6,4,9)               81.7745         estimate D2E/DX2                !
 ! A24   A(1,5,12)              83.2596         estimate D2E/DX2                !
 ! A25   A(1,5,21)              80.1954         estimate D2E/DX2                !
 ! A26   A(12,5,21)             83.1098         estimate D2E/DX2                !
 ! A27   A(4,6,7)               83.741          estimate D2E/DX2                !
 ! A28   A(4,6,8)               83.0644         estimate D2E/DX2                !
 ! A29   A(4,6,16)             136.6514         estimate D2E/DX2                !
 ! A30   A(4,6,43)             137.2936         estimate D2E/DX2                !
 ! A31   A(4,6,44)              81.3236         estimate D2E/DX2                !
 ! A32   A(7,6,8)              135.0413         estimate D2E/DX2                !
 ! A33   A(7,6,16)              79.7734         estimate D2E/DX2                !
 ! A34   A(7,6,43)             128.5673         estimate D2E/DX2                !
 ! A35   A(7,6,44)              85.258          estimate D2E/DX2                !
 ! A36   A(8,6,16)              81.0246         estimate D2E/DX2                !
 ! A37   A(8,6,43)              87.9751         estimate D2E/DX2                !
 ! A38   A(8,6,44)             134.329          estimate D2E/DX2                !
 ! A39   A(16,6,43)             82.0813         estimate D2E/DX2                !
 ! A40   A(16,6,44)            136.0329         estimate D2E/DX2                !
 ! A41   A(43,6,44)             75.5927         estimate D2E/DX2                !
 ! A42   A(6,7,13)              82.5754         estimate D2E/DX2                !
 ! A43   A(6,7,18)              82.656          estimate D2E/DX2                !
 ! A44   A(13,7,18)             81.2832         estimate D2E/DX2                !
 ! A45   A(1,8,6)               81.0975         estimate D2E/DX2                !
 ! A46   A(1,8,9)               81.1623         estimate D2E/DX2                !
 ! A47   A(6,8,9)               81.6926         estimate D2E/DX2                !
 ! A48   A(4,9,8)               81.7304         estimate D2E/DX2                !
 ! A49   A(4,9,10)              82.3182         estimate D2E/DX2                !
 ! A50   A(4,9,11)              82.2146         estimate D2E/DX2                !
 ! A51   A(4,9,15)             134.6438         estimate D2E/DX2                !
 ! A52   A(4,9,26)             135.7217         estimate D2E/DX2                !
 ! A53   A(8,9,10)             133.1313         estimate D2E/DX2                !
 ! A54   A(8,9,11)             134.9375         estimate D2E/DX2                !
 ! A55   A(8,9,15)              83.1801         estimate D2E/DX2                !
 ! A56   A(8,9,26)              81.1927         estimate D2E/DX2                !
 ! A57   A(10,9,11)             85.4858         estimate D2E/DX2                !
 ! A58   A(10,9,15)            135.9589         estimate D2E/DX2                !
 ! A59   A(10,9,26)             80.2929         estimate D2E/DX2                !
 ! A60   A(11,9,15)             78.9225         estimate D2E/DX2                !
 ! A61   A(11,9,26)            135.9475         estimate D2E/DX2                !
 ! A62   A(15,9,26)             82.9749         estimate D2E/DX2                !
 ! A63   A(9,10,13)             83.0808         estimate D2E/DX2                !
 ! A64   A(9,10,24)             81.4037         estimate D2E/DX2                !
 ! A65   A(13,10,24)            81.8681         estimate D2E/DX2                !
 ! A66   A(9,11,12)             84.0144         estimate D2E/DX2                !
 ! A67   A(9,11,27)             83.2407         estimate D2E/DX2                !
 ! A68   A(12,11,27)            82.6034         estimate D2E/DX2                !
 ! A69   A(2,12,5)              80.993          estimate D2E/DX2                !
 ! A70   A(2,12,11)            132.9309         estimate D2E/DX2                !
 ! A71   A(2,12,14)             82.4212         estimate D2E/DX2                !
 ! A72   A(2,12,15)             80.5374         estimate D2E/DX2                !
 ! A73   A(2,12,52)            136.0646         estimate D2E/DX2                !
 ! A74   A(5,12,11)             82.2668         estimate D2E/DX2                !
 ! A75   A(5,12,14)            133.6949         estimate D2E/DX2                !
 ! A76   A(5,12,15)            133.8122         estimate D2E/DX2                !
 ! A77   A(5,12,52)             82.6035         estimate D2E/DX2                !
 ! A78   A(11,12,14)           137.3728         estimate D2E/DX2                !
 ! A79   A(11,12,15)            80.1743         estimate D2E/DX2                !
 ! A80   A(11,12,52)            84.1467         estimate D2E/DX2                !
 ! A81   A(14,12,15)            84.7555         estimate D2E/DX2                !
 ! A82   A(14,12,52)            80.1492         estimate D2E/DX2                !
 ! A83   A(15,12,52)           136.8051         estimate D2E/DX2                !
 ! A84   A(7,13,10)             79.9773         estimate D2E/DX2                !
 ! A85   A(7,13,16)             80.1681         estimate D2E/DX2                !
 ! A86   A(7,13,26)            134.2967         estimate D2E/DX2                !
 ! A87   A(7,13,37)             82.6467         estimate D2E/DX2                !
 ! A88   A(7,13,38)            141.1251         estimate D2E/DX2                !
 ! A89   A(10,13,16)           133.2858         estimate D2E/DX2                !
 ! A90   A(10,13,26)            81.0438         estimate D2E/DX2                !
 ! A91   A(10,13,37)            87.4873         estimate D2E/DX2                !
 ! A92   A(10,13,38)           133.8333         estimate D2E/DX2                !
 ! A93   A(16,13,26)            83.4379         estimate D2E/DX2                !
 ! A94   A(16,13,37)           130.8509         estimate D2E/DX2                !
 ! A95   A(16,13,38)            84.4298         estimate D2E/DX2                !
 ! A96   A(26,13,37)           137.3655         estimate D2E/DX2                !
 ! A97   A(26,13,38)            78.1373         estimate D2E/DX2                !
 ! A98   A(37,13,38)            80.9385         estimate D2E/DX2                !
 ! A99   A(12,14,51)            79.8236         estimate D2E/DX2                !
 ! A100  A(12,14,54)            77.2051         estimate D2E/DX2                !
 ! A101  A(9,15,12)             84.2214         estimate D2E/DX2                !
 ! A102  A(9,15,27)             83.135          estimate D2E/DX2                !
 ! A103  A(12,15,27)            82.6587         estimate D2E/DX2                !
 ! A104  A(6,16,13)             83.719          estimate D2E/DX2                !
 ! A105  A(6,16,18)             83.2485         estimate D2E/DX2                !
 ! A106  A(13,16,18)            81.9194         estimate D2E/DX2                !
 ! A107  A(24,17,33)            81.5465         estimate D2E/DX2                !
 ! A108  A(24,17,36)            82.6977         estimate D2E/DX2                !
 ! A109  A(33,17,36)            89.8514         estimate D2E/DX2                !
 ! A110  A(7,18,16)             82.2871         estimate D2E/DX2                !
 ! A111  A(7,18,19)             79.0082         estimate D2E/DX2                !
 ! A112  A(7,18,20)            139.2539         estimate D2E/DX2                !
 ! A113  A(7,18,40)            104.0966         estimate D2E/DX2                !
 ! A114  A(7,18,42)             88.1283         estimate D2E/DX2                !
 ! A115  A(16,18,19)           136.8855         estimate D2E/DX2                !
 ! A116  A(16,18,20)            87.9773         estimate D2E/DX2                !
 ! A117  A(16,18,40)           129.9252         estimate D2E/DX2                !
 ! A118  A(16,18,42)            95.2154         estimate D2E/DX2                !
 ! A119  A(19,18,20)            81.6882         estimate D2E/DX2                !
 ! A120  A(19,18,40)            92.3865         estimate D2E/DX2                !
 ! A121  A(20,18,40)           112.2733         estimate D2E/DX2                !
 ! A122  A(40,18,42)           134.0449         estimate D2E/DX2                !
 ! A123  A(2,21,5)              82.4615         estimate D2E/DX2                !
 ! A124  A(2,21,22)            123.7665         estimate D2E/DX2                !
 ! A125  A(2,21,23)             82.9668         estimate D2E/DX2                !
 ! A126  A(2,21,48)             93.4473         estimate D2E/DX2                !
 ! A127  A(2,21,49)            140.5538         estimate D2E/DX2                !
 ! A128  A(5,21,22)            108.0681         estimate D2E/DX2                !
 ! A129  A(5,21,23)            140.788          estimate D2E/DX2                !
 ! A130  A(5,21,48)             93.7346         estimate D2E/DX2                !
 ! A131  A(5,21,49)             83.5313         estimate D2E/DX2                !
 ! A132  A(22,21,23)           110.3149         estimate D2E/DX2                !
 ! A133  A(22,21,48)           138.2547         estimate D2E/DX2                !
 ! A134  A(22,21,49)            95.6344         estimate D2E/DX2                !
 ! A135  A(23,21,49)            85.0629         estimate D2E/DX2                !
 ! A136  A(21,22,51)            95.4973         estimate D2E/DX2                !
 ! A137  A(10,24,17)           137.5782         estimate D2E/DX2                !
 ! A138  A(10,24,25)            81.2069         estimate D2E/DX2                !
 ! A139  A(10,24,26)            81.9557         estimate D2E/DX2                !
 ! A140  A(10,24,28)            83.636          estimate D2E/DX2                !
 ! A141  A(10,24,29)           135.4901         estimate D2E/DX2                !
 ! A142  A(17,24,25)            75.6233         estimate D2E/DX2                !
 ! A143  A(17,24,26)            88.4143         estimate D2E/DX2                !
 ! A144  A(17,24,28)           128.6854         estimate D2E/DX2                !
 ! A145  A(17,24,29)            82.5922         estimate D2E/DX2                !
 ! A146  A(25,24,26)           132.9376         estimate D2E/DX2                !
 ! A147  A(25,24,28)            86.0045         estimate D2E/DX2                !
 ! A148  A(25,24,29)           137.7266         estimate D2E/DX2                !
 ! A149  A(26,24,28)           134.9404         estimate D2E/DX2                !
 ! A150  A(26,24,29)            81.1102         estimate D2E/DX2                !
 ! A151  A(28,24,29)            79.9647         estimate D2E/DX2                !
 ! A152  A(24,25,33)            82.2815         estimate D2E/DX2                !
 ! A153  A(24,25,36)            81.9023         estimate D2E/DX2                !
 ! A154  A(33,25,36)            91.8395         estimate D2E/DX2                !
 ! A155  A(9,26,13)             83.7996         estimate D2E/DX2                !
 ! A156  A(9,26,24)             81.5277         estimate D2E/DX2                !
 ! A157  A(13,26,24)            82.1221         estimate D2E/DX2                !
 ! A158  A(11,27,15)            80.1296         estimate D2E/DX2                !
 ! A159  A(11,27,28)            82.6791         estimate D2E/DX2                !
 ! A160  A(11,27,29)           133.1395         estimate D2E/DX2                !
 ! A161  A(11,27,30)           131.9794         estimate D2E/DX2                !
 ! A162  A(11,27,55)            83.315          estimate D2E/DX2                !
 ! A163  A(11,27,56)           136.4374         estimate D2E/DX2                !
 ! A164  A(15,27,28)           133.7985         estimate D2E/DX2                !
 ! A165  A(15,27,29)            80.3563         estimate D2E/DX2                !
 ! A166  A(15,27,30)           129.0891         estimate D2E/DX2                !
 ! A167  A(15,27,55)           135.5493         estimate D2E/DX2                !
 ! A168  A(15,27,56)            83.6044         estimate D2E/DX2                !
 ! A169  A(28,27,29)            80.9587         estimate D2E/DX2                !
 ! A170  A(28,27,55)            83.7026         estimate D2E/DX2                !
 ! A171  A(28,27,56)           134.6944         estimate D2E/DX2                !
 ! A172  A(29,27,55)           137.3137         estimate D2E/DX2                !
 ! A173  A(29,27,56)            82.4408         estimate D2E/DX2                !
 ! A174  A(30,27,55)            91.9796         estimate D2E/DX2                !
 ! A175  A(30,27,56)            88.9456         estimate D2E/DX2                !
 ! A176  A(55,27,56)            80.6674         estimate D2E/DX2                !
 ! A177  A(24,28,27)            84.0166         estimate D2E/DX2                !
 ! A178  A(24,28,30)            81.0804         estimate D2E/DX2                !
 ! A179  A(24,29,27)            84.5123         estimate D2E/DX2                !
 ! A180  A(24,29,30)            82.1789         estimate D2E/DX2                !
 ! A181  A(27,30,31)            98.4486         estimate D2E/DX2                !
 ! A182  A(27,30,32)           138.4393         estimate D2E/DX2                !
 ! A183  A(27,30,33)           125.4136         estimate D2E/DX2                !
 ! A184  A(27,30,34)           129.0677         estimate D2E/DX2                !
 ! A185  A(28,30,29)            82.9091         estimate D2E/DX2                !
 ! A186  A(28,30,31)           107.2933         estimate D2E/DX2                !
 ! A187  A(28,30,32)           139.184          estimate D2E/DX2                !
 ! A188  A(28,30,33)            88.6711         estimate D2E/DX2                !
 ! A189  A(28,30,34)            79.1121         estimate D2E/DX2                !
 ! A190  A(29,30,31)           129.9228         estimate D2E/DX2                !
 ! A191  A(29,30,32)            88.0465         estimate D2E/DX2                !
 ! A192  A(29,30,33)            97.366          estimate D2E/DX2                !
 ! A193  A(29,30,34)           138.766          estimate D2E/DX2                !
 ! A194  A(31,30,32)           108.921          estimate D2E/DX2                !
 ! A195  A(31,30,33)           130.8806         estimate D2E/DX2                !
 ! A196  A(31,30,34)            90.9652         estimate D2E/DX2                !
 ! A197  A(32,30,34)            82.0743         estimate D2E/DX2                !
 ! A198  A(30,31,57)            94.3388         estimate D2E/DX2                !
 ! A199  A(17,33,25)            78.1865         estimate D2E/DX2                !
 ! A200  A(17,33,30)            86.6748         estimate D2E/DX2                !
 ! A201  A(17,33,32)            77.1856         estimate D2E/DX2                !
 ! A202  A(17,33,34)           137.6894         estimate D2E/DX2                !
 ! A203  A(17,33,59)           116.6792         estimate D2E/DX2                !
 ! A204  A(25,33,30)            98.402          estimate D2E/DX2                !
 ! A205  A(25,33,32)           138.1001         estimate D2E/DX2                !
 ! A206  A(25,33,34)            93.1011         estimate D2E/DX2                !
 ! A207  A(25,33,59)           114.0921         estimate D2E/DX2                !
 ! A208  A(30,33,59)           142.6179         estimate D2E/DX2                !
 ! A209  A(32,33,34)            83.0872         estimate D2E/DX2                !
 ! A210  A(32,33,59)           107.1617         estimate D2E/DX2                !
 ! A211  A(34,33,59)           104.7565         estimate D2E/DX2                !
 ! A212  A(17,36,25)            77.4256         estimate D2E/DX2                !
 ! A213  A(17,36,35)           102.5714         estimate D2E/DX2                !
 ! A214  A(17,36,37)           142.3273         estimate D2E/DX2                !
 ! A215  A(17,36,38)            84.0405         estimate D2E/DX2                !
 ! A216  A(17,36,39)           135.4928         estimate D2E/DX2                !
 ! A217  A(25,36,35)           104.5862         estimate D2E/DX2                !
 ! A218  A(25,36,37)            83.2964         estimate D2E/DX2                !
 ! A219  A(25,36,38)           136.1863         estimate D2E/DX2                !
 ! A220  A(25,36,39)           135.1735         estimate D2E/DX2                !
 ! A221  A(35,36,37)           113.5397         estimate D2E/DX2                !
 ! A222  A(35,36,38)           118.142          estimate D2E/DX2                !
 ! A223  A(35,36,39)            96.7788         estimate D2E/DX2                !
 ! A224  A(37,36,38)            88.0854         estimate D2E/DX2                !
 ! A225  A(13,37,36)            79.1501         estimate D2E/DX2                !
 ! A226  A(13,37,39)            80.9358         estimate D2E/DX2                !
 ! A227  A(13,38,36)            78.9372         estimate D2E/DX2                !
 ! A228  A(13,38,39)            80.8624         estimate D2E/DX2                !
 ! A229  A(36,39,40)           141.0174         estimate D2E/DX2                !
 ! A230  A(36,39,41)            95.3787         estimate D2E/DX2                !
 ! A231  A(36,39,62)           130.2373         estimate D2E/DX2                !
 ! A232  A(37,39,38)            89.0801         estimate D2E/DX2                !
 ! A233  A(37,39,40)            88.8787         estimate D2E/DX2                !
 ! A234  A(37,39,41)           111.2606         estimate D2E/DX2                !
 ! A235  A(37,39,62)           153.7541         estimate D2E/DX2                !
 ! A236  A(38,39,40)           133.6119         estimate D2E/DX2                !
 ! A237  A(38,39,41)           118.9083         estimate D2E/DX2                !
 ! A238  A(38,39,62)            80.3936         estimate D2E/DX2                !
 ! A239  A(40,39,41)           104.8508         estimate D2E/DX2                !
 ! A240  A(40,39,62)            81.4256         estimate D2E/DX2                !
 ! A241  A(41,39,62)            94.8268         estimate D2E/DX2                !
 ! A242  A(18,40,39)            93.7857         estimate D2E/DX2                !
 ! A243  A(18,40,63)            95.6651         estimate D2E/DX2                !
 ! A244  A(39,40,63)            90.0            estimate D2E/DX2                !
 ! A245  A(18,42,43)            88.2464         estimate D2E/DX2                !
 ! A246  A(18,42,44)            98.3338         estimate D2E/DX2                !
 ! A247  A(18,42,61)           142.8227         estimate D2E/DX2                !
 ! A248  A(19,42,20)            81.9003         estimate D2E/DX2                !
 ! A249  A(19,42,43)           138.4441         estimate D2E/DX2                !
 ! A250  A(19,42,44)            91.7991         estimate D2E/DX2                !
 ! A251  A(19,42,61)           105.1157         estimate D2E/DX2                !
 ! A252  A(20,42,43)            79.99           estimate D2E/DX2                !
 ! A253  A(20,42,44)           139.4519         estimate D2E/DX2                !
 ! A254  A(20,42,61)           106.9951         estimate D2E/DX2                !
 ! A255  A(43,42,44)            78.7049         estimate D2E/DX2                !
 ! A256  A(43,42,61)           115.861          estimate D2E/DX2                !
 ! A257  A(44,42,61)           113.2911         estimate D2E/DX2                !
 ! A258  A(6,43,42)             81.3111         estimate D2E/DX2                !
 ! A259  A(6,43,45)             82.468          estimate D2E/DX2                !
 ! A260  A(42,43,45)            89.4763         estimate D2E/DX2                !
 ! A261  A(6,44,42)             82.5394         estimate D2E/DX2                !
 ! A262  A(6,44,45)             82.1115         estimate D2E/DX2                !
 ! A263  A(42,44,45)            91.9842         estimate D2E/DX2                !
 ! A264  A(3,45,43)             84.8319         estimate D2E/DX2                !
 ! A265  A(3,45,44)            136.4227         estimate D2E/DX2                !
 ! A266  A(3,45,46)             88.1763         estimate D2E/DX2                !
 ! A267  A(3,45,47)            115.3844         estimate D2E/DX2                !
 ! A268  A(43,45,44)            77.0979         estimate D2E/DX2                !
 ! A269  A(43,45,46)           138.8866         estimate D2E/DX2                !
 ! A270  A(43,45,47)           105.505          estimate D2E/DX2                !
 ! A271  A(43,45,48)           136.7962         estimate D2E/DX2                !
 ! A272  A(44,45,46)            80.5933         estimate D2E/DX2                !
 ! A273  A(44,45,47)           107.6086         estimate D2E/DX2                !
 ! A274  A(44,45,48)           132.4242         estimate D2E/DX2                !
 ! A275  A(46,45,47)           114.0241         estimate D2E/DX2                !
 ! A276  A(47,45,48)            94.772          estimate D2E/DX2                !
 ! A277  A(1,46,45)             80.2339         estimate D2E/DX2                !
 ! A278  A(1,46,48)             80.4546         estimate D2E/DX2                !
 ! A279  A(3,48,21)             91.5225         estimate D2E/DX2                !
 ! A280  A(3,48,23)             81.2913         estimate D2E/DX2                !
 ! A281  A(3,48,46)             86.121          estimate D2E/DX2                !
 ! A282  A(3,48,49)            136.7128         estimate D2E/DX2                !
 ! A283  A(3,48,50)            119.4255         estimate D2E/DX2                !
 ! A284  A(21,48,45)           120.7701         estimate D2E/DX2                !
 ! A285  A(21,48,46)            90.1773         estimate D2E/DX2                !
 ! A286  A(21,48,50)           136.7078         estimate D2E/DX2                !
 ! A287  A(23,48,45)           131.787          estimate D2E/DX2                !
 ! A288  A(23,48,46)           135.5508         estimate D2E/DX2                !
 ! A289  A(23,48,49)            80.6394         estimate D2E/DX2                !
 ! A290  A(23,48,50)           103.936          estimate D2E/DX2                !
 ! A291  A(45,48,49)           130.5371         estimate D2E/DX2                !
 ! A292  A(45,48,50)           102.5049         estimate D2E/DX2                !
 ! A293  A(46,48,49)            79.9999         estimate D2E/DX2                !
 ! A294  A(46,48,50)           119.2551         estimate D2E/DX2                !
 ! A295  A(49,48,50)           103.0153         estimate D2E/DX2                !
 ! A296  A(14,51,22)           123.6845         estimate D2E/DX2                !
 ! A297  A(14,51,52)            91.7134         estimate D2E/DX2                !
 ! A298  A(14,51,60)           110.8586         estimate D2E/DX2                !
 ! A299  A(22,51,52)           112.7394         estimate D2E/DX2                !
 ! A300  A(22,51,54)           159.96           estimate D2E/DX2                !
 ! A301  A(22,51,60)           105.4234         estimate D2E/DX2                !
 ! A302  A(52,51,60)           112.06           estimate D2E/DX2                !
 ! A303  A(54,51,60)            93.5709         estimate D2E/DX2                !
 ! A304  A(12,52,51)            79.3328         estimate D2E/DX2                !
 ! A305  A(12,52,54)            76.0733         estimate D2E/DX2                !
 ! A306  A(14,54,52)            84.2737         estimate D2E/DX2                !
 ! A307  A(14,54,53)           105.1003         estimate D2E/DX2                !
 ! A308  A(14,54,55)           145.9668         estimate D2E/DX2                !
 ! A309  A(14,54,56)            85.7609         estimate D2E/DX2                !
 ! A310  A(14,54,57)           135.6239         estimate D2E/DX2                !
 ! A311  A(51,54,53)            86.1557         estimate D2E/DX2                !
 ! A312  A(51,54,55)           130.3018         estimate D2E/DX2                !
 ! A313  A(51,54,56)           133.6619         estimate D2E/DX2                !
 ! A314  A(52,54,53)           105.1426         estimate D2E/DX2                !
 ! A315  A(52,54,55)            83.1894         estimate D2E/DX2                !
 ! A316  A(52,54,56)           145.5365         estimate D2E/DX2                !
 ! A317  A(52,54,57)           132.2491         estimate D2E/DX2                !
 ! A318  A(53,54,55)           108.688          estimate D2E/DX2                !
 ! A319  A(53,54,56)           109.3012         estimate D2E/DX2                !
 ! A320  A(53,54,57)            90.0532         estimate D2E/DX2                !
 ! A321  A(55,54,56)            86.9425         estimate D2E/DX2                !
 ! A322  A(27,55,54)            76.0639         estimate D2E/DX2                !
 ! A323  A(27,55,57)            79.1628         estimate D2E/DX2                !
 ! A324  A(27,56,54)            77.5501         estimate D2E/DX2                !
 ! A325  A(27,56,57)            80.0411         estimate D2E/DX2                !
 ! A326  A(31,57,54)           157.1207         estimate D2E/DX2                !
 ! A327  A(31,57,55)           107.839          estimate D2E/DX2                !
 ! A328  A(31,57,56)           123.9849         estimate D2E/DX2                !
 ! A329  A(31,57,58)           105.2779         estimate D2E/DX2                !
 ! A330  A(54,57,58)            95.3694         estimate D2E/DX2                !
 ! A331  A(55,57,56)            92.6995         estimate D2E/DX2                !
 ! A332  A(55,57,58)           113.7804         estimate D2E/DX2                !
 ! A333  A(56,57,58)           112.9145         estimate D2E/DX2                !
 ! A334  A(39,62,64)           101.3324         estimate D2E/DX2                !
 ! A335  L(51,54,57,53,-1)     176.2089         estimate D2E/DX2                !
 ! A336  L(51,54,57,53,-2)     177.7806         estimate D2E/DX2                !
 ! D1    D(3,1,2,12)           178.541          estimate D2E/DX2                !
 ! D2    D(3,1,2,21)            94.3836         estimate D2E/DX2                !
 ! D3    D(4,1,2,12)           -27.8543         estimate D2E/DX2                !
 ! D4    D(4,1,2,21)          -112.0117         estimate D2E/DX2                !
 ! D5    D(5,1,2,12)            40.9687         estimate D2E/DX2                !
 ! D6    D(5,1,2,21)           -43.1887         estimate D2E/DX2                !
 ! D7    D(8,1,2,12)           -99.6917         estimate D2E/DX2                !
 ! D8    D(8,1,2,21)           176.151          estimate D2E/DX2                !
 ! D9    D(46,1,2,12)          108.5355         estimate D2E/DX2                !
 ! D10   D(46,1,2,21)           24.3781         estimate D2E/DX2                !
 ! D11   D(2,1,3,45)          -174.739          estimate D2E/DX2                !
 ! D12   D(2,1,3,48)           -95.8972         estimate D2E/DX2                !
 ! D13   D(4,1,3,45)            31.469          estimate D2E/DX2                !
 ! D14   D(4,1,3,48)           110.3109         estimate D2E/DX2                !
 ! D15   D(5,1,3,45)          -106.8046         estimate D2E/DX2                !
 ! D16   D(5,1,3,48)           -27.9627         estimate D2E/DX2                !
 ! D17   D(8,1,3,45)           101.6856         estimate D2E/DX2                !
 ! D18   D(8,1,3,48)          -179.4725         estimate D2E/DX2                !
 ! D19   D(46,1,3,45)          -38.7628         estimate D2E/DX2                !
 ! D20   D(46,1,3,48)           40.0791         estimate D2E/DX2                !
 ! D21   D(2,1,4,6)           -112.7606         estimate D2E/DX2                !
 ! D22   D(2,1,4,9)            -29.6557         estimate D2E/DX2                !
 ! D23   D(3,1,4,6)             28.3451         estimate D2E/DX2                !
 ! D24   D(3,1,4,9)            111.45           estimate D2E/DX2                !
 ! D25   D(5,1,4,6)            179.6312         estimate D2E/DX2                !
 ! D26   D(5,1,4,9)            -97.2639         estimate D2E/DX2                !
 ! D27   D(8,1,4,6)            -41.0894         estimate D2E/DX2                !
 ! D28   D(8,1,4,9)             42.0154         estimate D2E/DX2                !
 ! D29   D(46,1,4,6)            97.7239         estimate D2E/DX2                !
 ! D30   D(46,1,4,9)          -179.1713         estimate D2E/DX2                !
 ! D31   D(2,1,5,12)           -41.126          estimate D2E/DX2                !
 ! D32   D(2,1,5,21)            43.0099         estimate D2E/DX2                !
 ! D33   D(3,1,5,12)          -110.1461         estimate D2E/DX2                !
 ! D34   D(3,1,5,21)           -26.0102         estimate D2E/DX2                !
 ! D35   D(4,1,5,12)            97.9385         estimate D2E/DX2                !
 ! D36   D(4,1,5,21)          -177.9255         estimate D2E/DX2                !
 ! D37   D(8,1,5,12)            26.1316         estimate D2E/DX2                !
 ! D38   D(8,1,5,21)           110.2675         estimate D2E/DX2                !
 ! D39   D(46,1,5,12)         -178.0537         estimate D2E/DX2                !
 ! D40   D(46,1,5,21)          -93.9178         estimate D2E/DX2                !
 ! D41   D(2,1,8,6)            179.1587         estimate D2E/DX2                !
 ! D42   D(2,1,8,9)             96.2614         estimate D2E/DX2                !
 ! D43   D(3,1,8,6)            -97.2138         estimate D2E/DX2                !
 ! D44   D(3,1,8,9)            179.8889         estimate D2E/DX2                !
 ! D45   D(4,1,8,6)             41.0522         estimate D2E/DX2                !
 ! D46   D(4,1,8,9)            -41.8451         estimate D2E/DX2                !
 ! D47   D(5,1,8,6)            112.8848         estimate D2E/DX2                !
 ! D48   D(5,1,8,9)             29.9875         estimate D2E/DX2                !
 ! D49   D(46,1,8,6)           -31.0125         estimate D2E/DX2                !
 ! D50   D(46,1,8,9)          -113.9098         estimate D2E/DX2                !
 ! D51   D(2,1,46,45)          109.4953         estimate D2E/DX2                !
 ! D52   D(2,1,46,48)           30.5749         estimate D2E/DX2                !
 ! D53   D(3,1,46,45)           38.7767         estimate D2E/DX2                !
 ! D54   D(3,1,46,48)          -40.1437         estimate D2E/DX2                !
 ! D55   D(4,1,46,45)          -99.4937         estimate D2E/DX2                !
 ! D56   D(4,1,46,48)         -178.4141         estimate D2E/DX2                !
 ! D57   D(5,1,46,45)          176.5173         estimate D2E/DX2                !
 ! D58   D(5,1,46,48)           97.5969         estimate D2E/DX2                !
 ! D59   D(8,1,46,45)          -27.461          estimate D2E/DX2                !
 ! D60   D(8,1,46,48)         -106.3814         estimate D2E/DX2                !
 ! D61   D(1,2,12,5)           -41.5934         estimate D2E/DX2                !
 ! D62   D(1,2,12,11)           28.9233         estimate D2E/DX2                !
 ! D63   D(1,2,12,14)         -178.2035         estimate D2E/DX2                !
 ! D64   D(1,2,12,15)           95.8855         estimate D2E/DX2                !
 ! D65   D(1,2,12,52)         -110.9613         estimate D2E/DX2                !
 ! D66   D(21,2,12,5)           39.7213         estimate D2E/DX2                !
 ! D67   D(21,2,12,11)         110.238          estimate D2E/DX2                !
 ! D68   D(21,2,12,14)         -96.8888         estimate D2E/DX2                !
 ! D69   D(21,2,12,15)         177.2003         estimate D2E/DX2                !
 ! D70   D(21,2,12,52)         -29.6466         estimate D2E/DX2                !
 ! D71   D(1,2,21,5)            44.2683         estimate D2E/DX2                !
 ! D72   D(1,2,21,22)          150.9979         estimate D2E/DX2                !
 ! D73   D(1,2,21,23)          -99.2281         estimate D2E/DX2                !
 ! D74   D(1,2,21,48)          -49.0481         estimate D2E/DX2                !
 ! D75   D(1,2,21,49)          -25.8726         estimate D2E/DX2                !
 ! D76   D(12,2,21,5)          -40.07           estimate D2E/DX2                !
 ! D77   D(12,2,21,22)          66.6597         estimate D2E/DX2                !
 ! D78   D(12,2,21,23)         176.4336         estimate D2E/DX2                !
 ! D79   D(12,2,21,48)        -133.3864         estimate D2E/DX2                !
 ! D80   D(12,2,21,49)        -110.2109         estimate D2E/DX2                !
 ! D81   D(1,3,45,43)          -97.9073         estimate D2E/DX2                !
 ! D82   D(1,3,45,44)          -32.7602         estimate D2E/DX2                !
 ! D83   D(1,3,45,46)           41.5347         estimate D2E/DX2                !
 ! D84   D(1,3,45,47)          157.3677         estimate D2E/DX2                !
 ! D85   D(1,3,48,21)           47.9512         estimate D2E/DX2                !
 ! D86   D(1,3,48,23)           95.12           estimate D2E/DX2                !
 ! D87   D(1,3,48,46)          -42.1233         estimate D2E/DX2                !
 ! D88   D(1,3,48,49)           28.861          estimate D2E/DX2                !
 ! D89   D(1,3,48,50)         -163.7326         estimate D2E/DX2                !
 ! D90   D(1,4,6,7)            177.8223         estimate D2E/DX2                !
 ! D91   D(1,4,6,8)             40.8983         estimate D2E/DX2                !
 ! D92   D(1,4,6,16)           109.9321         estimate D2E/DX2                !
 ! D93   D(1,4,6,43)           -38.4828         estimate D2E/DX2                !
 ! D94   D(1,4,6,44)           -96.0418         estimate D2E/DX2                !
 ! D95   D(9,4,6,7)             95.8549         estimate D2E/DX2                !
 ! D96   D(9,4,6,8)            -41.0691         estimate D2E/DX2                !
 ! D97   D(9,4,6,16)            27.9646         estimate D2E/DX2                !
 ! D98   D(9,4,6,43)          -120.4502         estimate D2E/DX2                !
 ! D99   D(9,4,6,44)          -178.0092         estimate D2E/DX2                !
 ! D100  D(1,4,9,8)            -41.2245         estimate D2E/DX2                !
 ! D101  D(1,4,9,10)          -177.0085         estimate D2E/DX2                !
 ! D102  D(1,4,9,11)            96.5298         estimate D2E/DX2                !
 ! D103  D(1,4,9,15)            30.5836         estimate D2E/DX2                !
 ! D104  D(1,4,9,26)          -109.4677         estimate D2E/DX2                !
 ! D105  D(6,4,9,8)             40.4909         estimate D2E/DX2                !
 ! D106  D(6,4,9,10)           -95.2931         estimate D2E/DX2                !
 ! D107  D(6,4,9,11)           178.2452         estimate D2E/DX2                !
 ! D108  D(6,4,9,15)           112.299          estimate D2E/DX2                !
 ! D109  D(6,4,9,26)           -27.7523         estimate D2E/DX2                !
 ! D110  D(1,5,12,2)            41.3745         estimate D2E/DX2                !
 ! D111  D(1,5,12,11)          -94.4717         estimate D2E/DX2                !
 ! D112  D(1,5,12,14)          111.7328         estimate D2E/DX2                !
 ! D113  D(1,5,12,15)          -26.1218         estimate D2E/DX2                !
 ! D114  D(1,5,12,52)         -179.5295         estimate D2E/DX2                !
 ! D115  D(21,5,12,2)          -39.5091         estimate D2E/DX2                !
 ! D116  D(21,5,12,11)        -175.3554         estimate D2E/DX2                !
 ! D117  D(21,5,12,14)          30.8492         estimate D2E/DX2                !
 ! D118  D(21,5,12,15)        -107.0054         estimate D2E/DX2                !
 ! D119  D(21,5,12,52)          99.5869         estimate D2E/DX2                !
 ! D120  D(1,5,21,2)           -44.0909         estimate D2E/DX2                !
 ! D121  D(1,5,21,22)         -167.2224         estimate D2E/DX2                !
 ! D122  D(1,5,21,23)           24.9587         estimate D2E/DX2                !
 ! D123  D(1,5,21,48)           48.8982         estimate D2E/DX2                !
 ! D124  D(1,5,21,49)           98.939          estimate D2E/DX2                !
 ! D125  D(12,5,21,2)           40.2221         estimate D2E/DX2                !
 ! D126  D(12,5,21,22)         -82.9094         estimate D2E/DX2                !
 ! D127  D(12,5,21,23)         109.2717         estimate D2E/DX2                !
 ! D128  D(12,5,21,48)         133.2113         estimate D2E/DX2                !
 ! D129  D(12,5,21,49)        -176.748          estimate D2E/DX2                !
 ! D130  D(4,6,7,13)           -98.1243         estimate D2E/DX2                !
 ! D131  D(4,6,7,18)           179.7674         estimate D2E/DX2                !
 ! D132  D(8,6,7,13)           -24.4893         estimate D2E/DX2                !
 ! D133  D(8,6,7,18)          -106.5976         estimate D2E/DX2                !
 ! D134  D(16,6,7,13)           41.6181         estimate D2E/DX2                !
 ! D135  D(16,6,7,18)          -40.4902         estimate D2E/DX2                !
 ! D136  D(43,6,7,13)          112.7801         estimate D2E/DX2                !
 ! D137  D(43,6,7,18)           30.6718         estimate D2E/DX2                !
 ! D138  D(44,6,7,13)         -179.8924         estimate D2E/DX2                !
 ! D139  D(44,6,7,18)           97.9993         estimate D2E/DX2                !
 ! D140  D(4,6,8,1)            -41.3184         estimate D2E/DX2                !
 ! D141  D(4,6,8,9)             40.9642         estimate D2E/DX2                !
 ! D142  D(7,6,8,1)           -115.2223         estimate D2E/DX2                !
 ! D143  D(7,6,8,9)            -32.9396         estimate D2E/DX2                !
 ! D144  D(16,6,8,1)           179.1428         estimate D2E/DX2                !
 ! D145  D(16,6,8,9)           -98.5746         estimate D2E/DX2                !
 ! D146  D(43,6,8,1)            96.8423         estimate D2E/DX2                !
 ! D147  D(43,6,8,9)           179.125          estimate D2E/DX2                !
 ! D148  D(44,6,8,1)            29.336          estimate D2E/DX2                !
 ! D149  D(44,6,8,9)           111.6186         estimate D2E/DX2                !
 ! D150  D(4,6,16,13)           27.2564         estimate D2E/DX2                !
 ! D151  D(4,6,16,18)          109.823          estimate D2E/DX2                !
 ! D152  D(7,6,16,13)          -42.1029         estimate D2E/DX2                !
 ! D153  D(7,6,16,18)           40.4638         estimate D2E/DX2                !
 ! D154  D(8,6,16,13)           97.0491         estimate D2E/DX2                !
 ! D155  D(8,6,16,18)          179.6158         estimate D2E/DX2                !
 ! D156  D(43,6,16,13)        -173.7615         estimate D2E/DX2                !
 ! D157  D(43,6,16,18)         -91.1948         estimate D2E/DX2                !
 ! D158  D(44,6,16,13)        -114.1622         estimate D2E/DX2                !
 ! D159  D(44,6,16,18)         -31.5956         estimate D2E/DX2                !
 ! D160  D(4,6,43,42)         -103.9699         estimate D2E/DX2                !
 ! D161  D(4,6,43,45)          -13.3465         estimate D2E/DX2                !
 ! D162  D(7,6,43,42)           27.201          estimate D2E/DX2                !
 ! D163  D(7,6,43,45)          117.8244         estimate D2E/DX2                !
 ! D164  D(8,6,43,42)          178.5311         estimate D2E/DX2                !
 ! D165  D(8,6,43,45)          -90.8455         estimate D2E/DX2                !
 ! D166  D(16,6,43,42)          97.3141         estimate D2E/DX2                !
 ! D167  D(16,6,43,45)        -172.0625         estimate D2E/DX2                !
 ! D168  D(44,6,43,42)         -44.4985         estimate D2E/DX2                !
 ! D169  D(44,6,43,45)          46.1248         estimate D2E/DX2                !
 ! D170  D(4,6,44,42)         -169.6504         estimate D2E/DX2                !
 ! D171  D(4,6,44,45)           97.2887         estimate D2E/DX2                !
 ! D172  D(7,6,44,42)          -85.2747         estimate D2E/DX2                !
 ! D173  D(7,6,44,45)         -178.3356         estimate D2E/DX2                !
 ! D174  D(8,6,44,42)          119.0021         estimate D2E/DX2                !
 ! D175  D(8,6,44,45)           25.9412         estimate D2E/DX2                !
 ! D176  D(16,6,44,42)         -15.3107         estimate D2E/DX2                !
 ! D177  D(16,6,44,45)        -108.3715         estimate D2E/DX2                !
 ! D178  D(43,6,44,42)          46.5764         estimate D2E/DX2                !
 ! D179  D(43,6,44,45)         -46.4844         estimate D2E/DX2                !
 ! D180  D(6,7,13,10)           95.7035         estimate D2E/DX2                !
 ! D181  D(6,7,13,16)          -41.796          estimate D2E/DX2                !
 ! D182  D(6,7,13,26)           28.8654         estimate D2E/DX2                !
 ! D183  D(6,7,13,37)         -175.5618         estimate D2E/DX2                !
 ! D184  D(6,7,13,38)         -109.9612         estimate D2E/DX2                !
 ! D185  D(18,7,13,10)         179.3631         estimate D2E/DX2                !
 ! D186  D(18,7,13,16)          41.8636         estimate D2E/DX2                !
 ! D187  D(18,7,13,26)         112.525          estimate D2E/DX2                !
 ! D188  D(18,7,13,37)         -91.9021         estimate D2E/DX2                !
 ! D189  D(18,7,13,38)         -26.3015         estimate D2E/DX2                !
 ! D190  D(6,7,18,16)           41.1708         estimate D2E/DX2                !
 ! D191  D(6,7,18,19)          -99.791          estimate D2E/DX2                !
 ! D192  D(6,7,18,20)          -36.6031         estimate D2E/DX2                !
 ! D193  D(6,7,18,40)          170.4978         estimate D2E/DX2                !
 ! D194  D(6,7,18,42)          -54.3499         estimate D2E/DX2                !
 ! D195  D(13,7,18,16)         -42.3956         estimate D2E/DX2                !
 ! D196  D(13,7,18,19)         176.6426         estimate D2E/DX2                !
 ! D197  D(13,7,18,20)        -120.1695         estimate D2E/DX2                !
 ! D198  D(13,7,18,40)          86.9314         estimate D2E/DX2                !
 ! D199  D(13,7,18,42)        -137.9163         estimate D2E/DX2                !
 ! D200  D(1,8,9,4)             41.6727         estimate D2E/DX2                !
 ! D201  D(1,8,9,10)           112.9343         estimate D2E/DX2                !
 ! D202  D(1,8,9,11)           -28.5479         estimate D2E/DX2                !
 ! D203  D(1,8,9,15)           -95.4256         estimate D2E/DX2                !
 ! D204  D(1,8,9,26)          -179.3342         estimate D2E/DX2                !
 ! D205  D(6,8,9,4)            -40.5357         estimate D2E/DX2                !
 ! D206  D(6,8,9,10)            30.7259         estimate D2E/DX2                !
 ! D207  D(6,8,9,11)          -110.7563         estimate D2E/DX2                !
 ! D208  D(6,8,9,15)          -177.634          estimate D2E/DX2                !
 ! D209  D(6,8,9,26)            98.4574         estimate D2E/DX2                !
 ! D210  D(4,9,10,13)           98.6254         estimate D2E/DX2                !
 ! D211  D(4,9,10,24)         -178.5994         estimate D2E/DX2                !
 ! D212  D(8,9,10,13)           27.6049         estimate D2E/DX2                !
 ! D213  D(8,9,10,24)          110.38           estimate D2E/DX2                !
 ! D214  D(11,9,10,13)        -178.6399         estimate D2E/DX2                !
 ! D215  D(11,9,10,24)         -95.8648         estimate D2E/DX2                !
 ! D216  D(15,9,10,13)        -109.6717         estimate D2E/DX2                !
 ! D217  D(15,9,10,24)         -26.8965         estimate D2E/DX2                !
 ! D218  D(26,9,10,13)         -40.488          estimate D2E/DX2                !
 ! D219  D(26,9,10,24)          42.2871         estimate D2E/DX2                !
 ! D220  D(4,9,11,12)          -97.5361         estimate D2E/DX2                !
 ! D221  D(4,9,11,27)          179.236          estimate D2E/DX2                !
 ! D222  D(8,9,11,12)          -27.5045         estimate D2E/DX2                !
 ! D223  D(8,9,11,27)         -110.7324         estimate D2E/DX2                !
 ! D224  D(10,9,11,12)         179.6181         estimate D2E/DX2                !
 ! D225  D(10,9,11,27)          96.3903         estimate D2E/DX2                !
 ! D226  D(15,9,11,12)          41.0082         estimate D2E/DX2                !
 ! D227  D(15,9,11,27)         -42.2196         estimate D2E/DX2                !
 ! D228  D(26,9,11,12)         108.575          estimate D2E/DX2                !
 ! D229  D(26,9,11,27)          25.3472         estimate D2E/DX2                !
 ! D230  D(4,9,15,12)           26.0375         estimate D2E/DX2                !
 ! D231  D(4,9,15,27)          109.3084         estimate D2E/DX2                !
 ! D232  D(8,9,15,12)           97.271          estimate D2E/DX2                !
 ! D233  D(8,9,15,27)         -179.4581         estimate D2E/DX2                !
 ! D234  D(10,9,15,12)        -112.6404         estimate D2E/DX2                !
 ! D235  D(10,9,15,27)         -29.3696         estimate D2E/DX2                !
 ! D236  D(11,9,15,12)         -41.1713         estimate D2E/DX2                !
 ! D237  D(11,9,15,27)          42.0995         estimate D2E/DX2                !
 ! D238  D(26,9,15,12)         179.1866         estimate D2E/DX2                !
 ! D239  D(26,9,15,27)         -97.5425         estimate D2E/DX2                !
 ! D240  D(4,9,26,13)          -27.4757         estimate D2E/DX2                !
 ! D241  D(4,9,26,24)         -110.3984         estimate D2E/DX2                !
 ! D242  D(8,9,26,13)          -95.9222         estimate D2E/DX2                !
 ! D243  D(8,9,26,24)         -178.845          estimate D2E/DX2                !
 ! D244  D(10,9,26,13)          40.8288         estimate D2E/DX2                !
 ! D245  D(10,9,26,24)         -42.094          estimate D2E/DX2                !
 ! D246  D(11,9,26,13)         113.8719         estimate D2E/DX2                !
 ! D247  D(11,9,26,24)          30.9491         estimate D2E/DX2                !
 ! D248  D(15,9,26,13)         179.9311         estimate D2E/DX2                !
 ! D249  D(15,9,26,24)          97.0083         estimate D2E/DX2                !
 ! D250  D(9,10,13,7)          -97.4009         estimate D2E/DX2                !
 ! D251  D(9,10,13,16)         -31.2718         estimate D2E/DX2                !
 ! D252  D(9,10,13,26)          40.8274         estimate D2E/DX2                !
 ! D253  D(9,10,13,37)         179.6263         estimate D2E/DX2                !
 ! D254  D(9,10,13,38)         104.7363         estimate D2E/DX2                !
 ! D255  D(24,10,13,7)        -179.6562         estimate D2E/DX2                !
 ! D256  D(24,10,13,16)       -113.5271         estimate D2E/DX2                !
 ! D257  D(24,10,13,26)        -41.428          estimate D2E/DX2                !
 ! D258  D(24,10,13,37)         97.371          estimate D2E/DX2                !
 ! D259  D(24,10,13,38)         22.4809         estimate D2E/DX2                !
 ! D260  D(9,10,24,17)        -121.3911         estimate D2E/DX2                !
 ! D261  D(9,10,24,25)        -178.5901         estimate D2E/DX2                !
 ! D262  D(9,10,24,26)         -42.6994         estimate D2E/DX2                !
 ! D263  D(9,10,24,28)          94.4876         estimate D2E/DX2                !
 ! D264  D(9,10,24,29)          25.807          estimate D2E/DX2                !
 ! D265  D(13,10,24,17)        -37.2153         estimate D2E/DX2                !
 ! D266  D(13,10,24,25)        -94.4142         estimate D2E/DX2                !
 ! D267  D(13,10,24,26)         41.4765         estimate D2E/DX2                !
 ! D268  D(13,10,24,28)        178.6635         estimate D2E/DX2                !
 ! D269  D(13,10,24,29)        109.9829         estimate D2E/DX2                !
 ! D270  D(9,11,12,2)           25.561          estimate D2E/DX2                !
 ! D271  D(9,11,12,5)           95.5556         estimate D2E/DX2                !
 ! D272  D(9,11,12,14)        -112.5724         estimate D2E/DX2                !
 ! D273  D(9,11,12,15)         -41.5468         estimate D2E/DX2                !
 ! D274  D(9,11,12,52)         178.8553         estimate D2E/DX2                !
 ! D275  D(27,11,12,2)         109.4921         estimate D2E/DX2                !
 ! D276  D(27,11,12,5)         179.4866         estimate D2E/DX2                !
 ! D277  D(27,11,12,14)        -28.6414         estimate D2E/DX2                !
 ! D278  D(27,11,12,15)         42.3842         estimate D2E/DX2                !
 ! D279  D(27,11,12,52)        -97.2137         estimate D2E/DX2                !
 ! D280  D(9,11,27,15)          42.6013         estimate D2E/DX2                !
 ! D281  D(9,11,27,28)         -94.3398         estimate D2E/DX2                !
 ! D282  D(9,11,27,29)         -24.0657         estimate D2E/DX2                !
 ! D283  D(9,11,27,30)         -92.1778         estimate D2E/DX2                !
 ! D284  D(9,11,27,55)        -178.8142         estimate D2E/DX2                !
 ! D285  D(9,11,27,56)         112.2961         estimate D2E/DX2                !
 ! D286  D(12,11,27,15)        -42.2061         estimate D2E/DX2                !
 ! D287  D(12,11,27,28)       -179.1472         estimate D2E/DX2                !
 ! D288  D(12,11,27,29)       -108.8731         estimate D2E/DX2                !
 ! D289  D(12,11,27,30)       -176.9852         estimate D2E/DX2                !
 ! D290  D(12,11,27,55)         96.3784         estimate D2E/DX2                !
 ! D291  D(12,11,27,56)         27.4887         estimate D2E/DX2                !
 ! D292  D(2,12,14,51)         102.8191         estimate D2E/DX2                !
 ! D293  D(2,12,14,54)        -175.0016         estimate D2E/DX2                !
 ! D294  D(5,12,14,51)          33.035          estimate D2E/DX2                !
 ! D295  D(5,12,14,54)         115.2143         estimate D2E/DX2                !
 ! D296  D(11,12,14,51)       -106.7161         estimate D2E/DX2                !
 ! D297  D(11,12,14,54)        -24.5368         estimate D2E/DX2                !
 ! D298  D(15,12,14,51)       -176.0592         estimate D2E/DX2                !
 ! D299  D(15,12,14,54)        -93.8799         estimate D2E/DX2                !
 ! D300  D(52,12,14,51)        -36.6842         estimate D2E/DX2                !
 ! D301  D(52,12,14,54)         45.4951         estimate D2E/DX2                !
 ! D302  D(2,12,15,9)          -95.3087         estimate D2E/DX2                !
 ! D303  D(2,12,15,27)        -179.1031         estimate D2E/DX2                !
 ! D304  D(5,12,15,9)          -27.6328         estimate D2E/DX2                !
 ! D305  D(5,12,15,27)        -111.4272         estimate D2E/DX2                !
 ! D306  D(11,12,15,9)          41.5489         estimate D2E/DX2                !
 ! D307  D(11,12,15,27)        -42.2455         estimate D2E/DX2                !
 ! D308  D(14,12,15,9)        -178.476          estimate D2E/DX2                !
 ! D309  D(14,12,15,27)         97.7296         estimate D2E/DX2                !
 ! D310  D(52,12,15,9)         111.9355         estimate D2E/DX2                !
 ! D311  D(52,12,15,27)         28.1411         estimate D2E/DX2                !
 ! D312  D(2,12,52,51)         -30.7959         estimate D2E/DX2                !
 ! D313  D(2,12,52,54)        -113.5318         estimate D2E/DX2                !
 ! D314  D(5,12,52,51)         -99.557          estimate D2E/DX2                !
 ! D315  D(5,12,52,54)         177.7071         estimate D2E/DX2                !
 ! D316  D(11,12,52,51)        177.5137         estimate D2E/DX2                !
 ! D317  D(11,12,52,54)         94.7778         estimate D2E/DX2                !
 ! D318  D(14,12,52,51)         37.2942         estimate D2E/DX2                !
 ! D319  D(14,12,52,54)        -45.4416         estimate D2E/DX2                !
 ! D320  D(15,12,52,51)        108.6021         estimate D2E/DX2                !
 ! D321  D(15,12,52,54)         25.8663         estimate D2E/DX2                !
 ! D322  D(7,13,16,6)           42.2227         estimate D2E/DX2                !
 ! D323  D(7,13,16,18)         -41.8174         estimate D2E/DX2                !
 ! D324  D(10,13,16,6)         -23.8311         estimate D2E/DX2                !
 ! D325  D(10,13,16,18)       -107.8712         estimate D2E/DX2                !
 ! D326  D(26,13,16,6)         -94.949          estimate D2E/DX2                !
 ! D327  D(26,13,16,18)       -178.9891         estimate D2E/DX2                !
 ! D328  D(37,13,16,6)         113.4638         estimate D2E/DX2                !
 ! D329  D(37,13,16,18)         29.4238         estimate D2E/DX2                !
 ! D330  D(38,13,16,6)        -173.6058         estimate D2E/DX2                !
 ! D331  D(38,13,16,18)        102.3541         estimate D2E/DX2                !
 ! D332  D(7,13,26,9)           25.3853         estimate D2E/DX2                !
 ! D333  D(7,13,26,24)         107.6511         estimate D2E/DX2                !
 ! D334  D(10,13,26,9)         -41.0402         estimate D2E/DX2                !
 ! D335  D(10,13,26,24)         41.2256         estimate D2E/DX2                !
 ! D336  D(16,13,26,9)          94.7513         estimate D2E/DX2                !
 ! D337  D(16,13,26,24)        177.0171         estimate D2E/DX2                !
 ! D338  D(37,13,26,9)        -117.3479         estimate D2E/DX2                !
 ! D339  D(37,13,26,24)        -35.0821         estimate D2E/DX2                !
 ! D340  D(38,13,26,9)        -179.5887         estimate D2E/DX2                !
 ! D341  D(38,13,26,24)        -97.3229         estimate D2E/DX2                !
 ! D342  D(7,13,37,36)        -175.442          estimate D2E/DX2                !
 ! D343  D(7,13,37,39)         107.6512         estimate D2E/DX2                !
 ! D344  D(10,13,37,36)        -95.2291         estimate D2E/DX2                !
 ! D345  D(10,13,37,39)       -172.1359         estimate D2E/DX2                !
 ! D346  D(16,13,37,36)        114.3868         estimate D2E/DX2                !
 ! D347  D(16,13,37,39)         37.48           estimate D2E/DX2                !
 ! D348  D(26,13,37,36)        -21.354          estimate D2E/DX2                !
 ! D349  D(26,13,37,39)        -98.2608         estimate D2E/DX2                !
 ! D350  D(38,13,37,36)         39.9236         estimate D2E/DX2                !
 ! D351  D(38,13,37,39)        -36.9832         estimate D2E/DX2                !
 ! D352  D(7,13,38,36)        -106.3025         estimate D2E/DX2                !
 ! D353  D(7,13,38,39)         -28.8371         estimate D2E/DX2                !
 ! D354  D(10,13,38,36)         37.4526         estimate D2E/DX2                !
 ! D355  D(10,13,38,39)        114.918          estimate D2E/DX2                !
 ! D356  D(16,13,38,36)       -173.0779         estimate D2E/DX2                !
 ! D357  D(16,13,38,39)        -95.6124         estimate D2E/DX2                !
 ! D358  D(26,13,38,36)        102.4795         estimate D2E/DX2                !
 ! D359  D(26,13,38,39)        179.945          estimate D2E/DX2                !
 ! D360  D(37,13,38,36)        -40.1517         estimate D2E/DX2                !
 ! D361  D(37,13,38,39)         37.3137         estimate D2E/DX2                !
 ! D362  D(12,14,51,22)        -77.1818         estimate D2E/DX2                !
 ! D363  D(12,14,51,52)         41.8097         estimate D2E/DX2                !
 ! D364  D(12,14,51,60)        156.2343         estimate D2E/DX2                !
 ! D365  D(12,14,54,52)        -47.7906         estimate D2E/DX2                !
 ! D366  D(12,14,54,53)       -151.9643         estimate D2E/DX2                !
 ! D367  D(12,14,54,55)         21.0213         estimate D2E/DX2                !
 ! D368  D(12,14,54,56)         99.1733         estimate D2E/DX2                !
 ! D369  D(12,14,54,57)        101.9459         estimate D2E/DX2                !
 ! D370  D(9,15,27,11)         -42.6347         estimate D2E/DX2                !
 ! D371  D(9,15,27,28)          27.1196         estimate D2E/DX2                !
 ! D372  D(9,15,27,29)          94.5513         estimate D2E/DX2                !
 ! D373  D(9,15,27,30)          94.5335         estimate D2E/DX2                !
 ! D374  D(9,15,27,55)        -112.3862         estimate D2E/DX2                !
 ! D375  D(9,15,27,56)         177.9347         estimate D2E/DX2                !
 ! D376  D(12,15,27,11)         42.3893         estimate D2E/DX2                !
 ! D377  D(12,15,27,28)        112.1436         estimate D2E/DX2                !
 ! D378  D(12,15,27,29)        179.5753         estimate D2E/DX2                !
 ! D379  D(12,15,27,30)        179.5575         estimate D2E/DX2                !
 ! D380  D(12,15,27,55)        -27.3622         estimate D2E/DX2                !
 ! D381  D(12,15,27,56)        -97.0413         estimate D2E/DX2                !
 ! D382  D(6,16,18,7)          -41.6451         estimate D2E/DX2                !
 ! D383  D(6,16,18,19)          23.1296         estimate D2E/DX2                !
 ! D384  D(6,16,18,20)          98.6895         estimate D2E/DX2                !
 ! D385  D(6,16,18,40)        -143.6007         estimate D2E/DX2                !
 ! D386  D(6,16,18,42)          45.7493         estimate D2E/DX2                !
 ! D387  D(13,16,18,7)          42.9343         estimate D2E/DX2                !
 ! D388  D(13,16,18,19)        107.709          estimate D2E/DX2                !
 ! D389  D(13,16,18,20)       -176.7311         estimate D2E/DX2                !
 ! D390  D(13,16,18,40)        -59.0212         estimate D2E/DX2                !
 ! D391  D(13,16,18,42)        130.3287         estimate D2E/DX2                !
 ! D392  D(33,17,24,10)       -104.0136         estimate D2E/DX2                !
 ! D393  D(33,17,24,25)        -44.9729         estimate D2E/DX2                !
 ! D394  D(33,17,24,26)        179.7443         estimate D2E/DX2                !
 ! D395  D(33,17,24,28)         27.7258         estimate D2E/DX2                !
 ! D396  D(33,17,24,29)         98.5043         estimate D2E/DX2                !
 ! D397  D(36,17,24,10)        -13.0738         estimate D2E/DX2                !
 ! D398  D(36,17,24,25)         45.9668         estimate D2E/DX2                !
 ! D399  D(36,17,24,26)        -89.316          estimate D2E/DX2                !
 ! D400  D(36,17,24,28)        118.6655         estimate D2E/DX2                !
 ! D401  D(36,17,24,29)       -170.556          estimate D2E/DX2                !
 ! D402  D(24,17,33,25)         47.5453         estimate D2E/DX2                !
 ! D403  D(24,17,33,30)        -51.7593         estimate D2E/DX2                !
 ! D404  D(24,17,33,32)        -98.2889         estimate D2E/DX2                !
 ! D405  D(24,17,33,34)        -33.9627         estimate D2E/DX2                !
 ! D406  D(24,17,33,59)        158.7455         estimate D2E/DX2                !
 ! D407  D(36,17,33,25)        -35.094          estimate D2E/DX2                !
 ! D408  D(36,17,33,30)       -134.3987         estimate D2E/DX2                !
 ! D409  D(36,17,33,32)        179.0718         estimate D2E/DX2                !
 ! D410  D(36,17,33,34)       -116.6021         estimate D2E/DX2                !
 ! D411  D(36,17,33,59)         76.1062         estimate D2E/DX2                !
 ! D412  D(24,17,36,25)        -47.2598         estimate D2E/DX2                !
 ! D413  D(24,17,36,35)       -149.6531         estimate D2E/DX2                !
 ! D414  D(24,17,36,37)         13.7549         estimate D2E/DX2                !
 ! D415  D(24,17,36,38)         92.7925         estimate D2E/DX2                !
 ! D416  D(24,17,36,39)         96.8068         estimate D2E/DX2                !
 ! D417  D(33,17,36,25)         34.2363         estimate D2E/DX2                !
 ! D418  D(33,17,36,35)        -68.157          estimate D2E/DX2                !
 ! D419  D(33,17,36,37)         95.251          estimate D2E/DX2                !
 ! D420  D(33,17,36,38)        174.2886         estimate D2E/DX2                !
 ! D421  D(33,17,36,39)        178.3029         estimate D2E/DX2                !
 ! D422  D(7,18,40,39)         -80.3056         estimate D2E/DX2                !
 ! D423  D(7,18,40,63)        -170.6817         estimate D2E/DX2                !
 ! D424  D(16,18,40,39)         11.3973         estimate D2E/DX2                !
 ! D425  D(16,18,40,63)        -78.9788         estimate D2E/DX2                !
 ! D426  D(19,18,40,39)       -159.569          estimate D2E/DX2                !
[...]
 4805,-0.05188019,0.01189236,-0.00102127,-0.00137086,0.00186198,-0.0009
 9172,-0.00034121,0.00591732,-0.00002741,0.00002714,-0.00001493,0.00002
 029,0.00000021,-0.00001070,0.00000818,0.00000101,0.00000606,0.00004989
 ,0.00007287,0.00001686,-0.00006483,0.00016319,-0.00004351,-0.00026451,
 -0.00006231,-0.00013992,0.00002742,-0.00000693,0.00000407,-0.00001066,
 -0.00001235,0.00000528,-0.00000678,-0.00000286,0.00001977,0.00001076,-
 0.00004577,0.00003871,-0.00000186,0.00000875,-0.00001261,-0.00002402,0
 .00003019,-0.00000963,0.00014665,-0.00000192,-0.00004218,-0.00002527,0
 .00001740,0.00000592,0.00012592,0.00001678,0.00004885,0.00046923,-0.00
 093236,-0.00029028,0.00193242,0.00195405,-0.00007939,-0.00222278,0.002
 42436,0.00237712,0.00388679,-0.01721756,-0.01360709,-0.00332349,-0.008
 47474,-0.00660775,-0.00089851,0.00254207,0.00051966,-0.00115633,0.0002
 8418,-0.00175264,-0.00002764,-0.00022660,-0.00010907,0.00010236,0.0000
 6953,0.00018475,0.00023262,-0.00013574,0.00018020,-0.00000992,-0.00002
 125,-0.00001707,0.00001564,0.00003173,-0.00002915,0.00000765,0.0000006
 5,-0.00001342,0.00000647,-0.00000567,-0.00000151,-0.00001282,-0.000007
 36,0.00001800,-0.00004528,-0.00001182,0.00001008,0.00000249,0.00000190
 ,0.00000328,0.00001531,-0.00000727,0.00000928,-0.00001110,0.00001883,-
 0.00002827,0.00000095,0.00000060,0.00000365,-0.00000113,0.00000043,-0.
 00000077,-0.00002393,-0.00001448,0.00001384,0.00002498,-0.00000118,0.0
 0000154,-0.00002779,0.00001653,-0.00002575,0.00003814,-0.00000664,0.00
 000735,-0.00004339,-0.00013243,0.00024493,0.08150254,0.15057241,0.0000
 1700,0.00004989,-0.00001569,-0.00000346,-0.00000611,0.00000603,0.00001
 745,0.00001327,0.00001619,-0.00016733,-0.00009592,0.00002394,0.0000004
 9,0.00000052,-0.00000119,0.00072916,-0.00121512,0.00038880,0.00011479,
 0.00051081,0.00195966,0.00006706,0.00004624,0.00013370,-0.00015110,0.0
 0009597,0.00002299,0.00004220,0.00019776,0.00009082,-0.00000429,-0.000
 00736,-0.00001995,-0.00000451,0.00000558,0.00000613,-0.00090836,-0.002
 55038,0.00103021,-0.00000153,0.00000215,-0.00000027,0.00000750,0.00002
 237,-0.00000283,-0.00275909,0.00424519,-0.00104061,0.00018904,-0.00000
 424,0.00003760,-0.00612070,0.00820283,-0.01921099,0.00079094,0.0002299
 4,0.00011663,0.00124147,0.00724549,-0.00609395,0.00000672,-0.00000327,
 0.00000520,0.,0.00000032,-0.00000282,-0.00000475,0.00001029,0.00000162
 ,0.00011787,-0.00005091,-0.00016863,0.00019287,0.00010363,0.00008670,-
 0.00002608,0.00005547,0.00002725,-0.00000421,0.00000598,-0.00000271,0.
 00001201,0.00000368,0.00000706,0.00001568,0.00001355,-0.00000512,-0.00
 000095,-0.00002675,-0.00000127,0.00000275,0.00000089,-0.00000280,-0.00
 000288,-0.00000396,-0.00000372,0.00004453,0.00001688,-0.00004870,0.000
 01360,0.00000699,0.00001004,0.00000496,-0.00011793,0.00009823,-0.00051
 447,-0.00087958,0.00125878,0.00389333,-0.00329353,0.00017599,0.0020588
 7,0.00034825,-0.00064593,0.02183628,-0.00936862,-0.05009477,-0.0018425
 0,-0.00769692,-0.00452997,0.00079464,0.00078899,-0.00455136,0.00051546
 ,0.00004342,0.00063389,-0.00012065,0.00005947,-0.00014521,-0.00016804,
 0.00003688,-0.00000760,-0.00010283,0.00001930,-0.00018009,-0.00001376,
 0.00000899,0.00001700,-0.00003617,-0.00002255,0.00002314,0.00001940,0.
 00001267,-0.00002392,-0.00000757,-0.00000659,0.00000273,-0.00000471,-0
 .00000704,0.00001213,-0.00000038,-0.00000014,-0.00000478,-0.00000099,-
 0.00000107,-0.00000065,-0.00000066,0.00000020,0.00000147,0.00000291,-0
 .00000214,-0.00000064,0.00000006,-0.00000111,0.00000159,0.00000121,-0.
 00000189,0.00000089,-0.00000038,0.00000555,-0.00000143,-0.00000243,-0.
 00000114,0.00000191,-0.00000476,-0.00000166,-0.00000191,-0.00000152,0.
 00000134,-0.00000048,-0.00009657,-0.00029075,-0.00007007,0.07461924,0.
 07008012,0.16937439,0.00002305,-0.00001341,0.00001255,0.00000145,0.000
 00153,0.00000675,-0.00000598,0.00000552,-0.00001250,-0.00002599,-0.000
 01848,-0.00001832,-0.00000064,-0.00000511,0.00000095,0.00023626,-0.000
 06261,0.00019390,-0.00028265,-0.00008424,-0.00019399,-0.00000434,0.000
 03253,0.00001446,0.00001422,0.00000340,0.00000623,0.00003974,-0.000006
 48,0.00001180,-0.00000516,-0.00000077,0.00000397,0.00001183,0.00000434
 ,-0.00000610,-0.00025705,0.00003306,0.00022688,-0.00000164,-0.00000244
 ,-0.00000027,-0.00000342,-0.00000430,0.00000599,0.00023118,0.00008504,
 -0.00005157,-0.00006417,-0.00001238,-0.00004437,-0.00321883,0.00135603
 ,-0.00016759,-0.00008428,-0.00021499,-0.00014727,0.00036388,0.00012992
 ,-0.00004120,-0.00001413,0.00001079,-0.00000228,0.00001324,0.00000242,
 -0.00000833,0.00000300,-0.00000202,-0.00000113,-0.00001867,0.00000455,
 -0.00001969,-0.00002943,-0.00005797,0.00000492,-0.00003185,-0.00010972
 ,-0.00006039,0.00000992,-0.00000286,-0.00001032,-0.00000275,0.00000457
 ,0.00000591,-0.00000123,-0.00000307,0.00000729,0.00000498,-0.00001517,
 -0.00000051,-0.00000654,0.00000584,-0.00000643,-0.00000199,0.00000617,
 -0.00000581,0.00000479,-0.00000805,0.00000533,-0.00000142,0.00000812,0
 .00000236,0.00000954,0.00007686,-0.00000334,0.00033067,-0.00010138,0.0
 0006836,-0.00105989,-0.00118005,0.00016262,0.00017088,0.00020938,-0.00
 002016,-0.00677891,0.00347249,0.00105584,-0.16232582,0.10914325,0.0304
 0095,0.00058972,-0.00017300,0.00025661,0.00010501,0.00003320,-0.000192
 89,0.00004017,-0.00000460,-0.00007927,-0.00004740,0.00002374,-0.000007
 54,0.00004051,-0.00001560,-0.00000299,-0.00000381,0.00000902,-0.000003
 24,-0.00001433,-0.00000494,-0.00000038,0.00000621,0.00000217,-0.000000
 52,0.00000261,-0.00000023,0.00000026,-0.00000814,-0.00000418,0.0000078
 3,-0.00001840,-0.00001096,0.00000983,-0.00000010,0.00000163,0.00000269
 ,0.00000213,-0.00000328,0.00000504,0.00000007,0.00001148,-0.00001441,-
 0.00000146,-0.00000123,0.00000182,-0.00000138,-0.00000171,0.00000328,-
 0.00000362,-0.00000198,0.00000814,0.00000309,-0.00000068,0.00000028,-0
 .00000353,0.00000977,-0.00000762,0.00001458,-0.00000242,0.00000304,-0.
 00007563,-0.00003229,0.00006594,-0.00057818,-0.00038544,-0.00057308,0.
 17230542,0.00002407,0.00000165,0.00001927,0.00000120,0.00000273,0.0000
 0331,-0.00000442,0.00000016,-0.00000097,-0.00002774,-0.00000165,-0.000
 02351,-0.00000192,-0.00000974,-0.00000339,0.00017104,-0.00008310,0.000
 13979,0.00010892,0.00013483,0.00082864,0.00003573,0.00003724,-0.000005
 03,0.00000566,0.00002550,0.00002362,-0.00000301,-0.00003801,-0.0000130
 8,-0.00000451,0.00000565,0.00000196,0.00000331,0.00000569,0.00000144,-
 0.00048836,-0.00031269,0.00004982,-0.00000105,-0.00000173,0.00000047,-
 0.00000250,-0.00000145,0.00000279,0.00017587,-0.00005147,-0.00018121,-
 0.00001356,-0.00003758,-0.00004441,0.00044925,-0.00105222,0.00162032,-
 0.00016583,0.00045676,-0.00074150,0.00020585,0.00029072,-0.00048176,-0
 .00000292,0.00000841,-0.00000426,0.00000714,0.00000197,-0.00000562,-0.
 00000301,-0.00000132,0.00000196,-0.00001171,0.00001914,-0.00003734,0.0
 0000111,-0.00004733,-0.00000999,0.00001529,-0.00005797,-0.00001917,0.0
 0000628,-0.00000060,-0.00000928,-0.00000757,0.00000661,0.00000481,-0.0
 0000467,-0.00000630,0.00000927,0.00000716,-0.00001661,0.00000554,-0.00
 000691,0.00000521,-0.00000561,-0.00000483,0.00000601,-0.00000262,0.000
 03296,-0.00000111,-0.00001424,-0.00000972,0.00000829,-0.00000108,0.000
 00477,0.00008941,-0.00007177,0.00038970,-0.00010750,0.00014056,-0.0006
 1665,-0.00025953,0.00030588,-0.00000714,0.00033224,-0.00033638,-0.0070
 2925,0.00415646,0.00176894,0.11995471,-0.09950184,-0.02716712,-0.00012
 423,-0.00062712,0.00072496,0.00055098,-0.00042619,0.00022550,-0.000078
 98,0.00011311,-0.00002546,-0.00014384,0.00009952,-0.00008748,-0.000024
 51,0.00006355,-0.00005612,-0.00001193,0.00000307,-0.00000202,-0.000026
 83,-0.00001392,0.00001937,0.00000106,0.00001013,-0.00000788,-0.0000020
 8,-0.00000111,0.00000115,-0.00000252,-0.00000448,0.00000704,-0.0000065
 5,-0.00000667,0.00000417,0.00000020,-0.00000015,0.00000143,-0.00000153
 ,-0.00000130,0.00000263,0.00000358,0.00000590,-0.00000976,-0.00000006,
 -0.00000276,0.00000111,-0.00000054,-0.00000077,0.00000256,0.00000145,-
 0.00000150,0.00000755,-0.00000308,0.00000005,0.00000019,-0.00000366,-0
 .00000195,0.00000227,0.00000413,-0.00000057,0.00000117,-0.00005617,0.0
 0004817,0.00005696,-0.00125728,-0.00087231,-0.00142151,-0.11235672,0.0
 9773583,-0.00000639,0.00000054,0.00002520,-0.00000082,-0.00000092,-0.0
 0000914,0.00002745,0.00000660,-0.00001510,0.00003848,-0.00004384,-0.00
 001569,0.00000249,0.00000963,0.00000046,0.00012131,0.00001866,0.000165
 85,-0.00037272,0.00006869,-0.00085296,-0.00001038,-0.00003266,0.000014
 78,-0.00001432,-0.00002073,0.00003773,0.00001615,0.00004422,-0.0000294
 5,-0.00000282,0.00000632,-0.00001464,-0.00000791,-0.00001022,0.0000140
 2,-0.00023599,0.00024107,-0.00041971,0.00000040,0.00000361,-0.00000125
 ,-0.00000053,0.00000472,-0.00001909,0.00067240,0.00036100,0.00027994,0
 .00004201,-0.00004178,0.00009302,-0.00886764,0.00554256,0.00025419,-0.
 00021529,-0.00031161,0.00031046,0.00119295,-0.00027537,-0.00060405,0.0
 0002452,-0.00000942,-0.00000598,-0.00001622,-0.00000619,0.00001148,-0.
 00001100,0.00000225,0.00000803,0.00004143,0.00002134,0.00000236,-0.000
 01090,-0.00004007,0.00002276,-0.00001522,-0.00003317,-0.00004178,0.000
 00708,-0.00001397,0.00002058,0.00000096,0.00000109,-0.00000743,-0.0000
 0012,0.00000803,-0.00001126,-0.00002434,0.00003578,-0.00000857,0.00002
 669,-0.00002104,0.00001787,0.00001762,-0.00002105,0.00000880,-0.000118
 58,0.00003051,0.00004821,0.00002840,-0.00002174,0.00000614,-0.00006130
 ,0.00007562,-0.00010292,0.00001343,-0.00011525,-0.00024135,0.00065335,
 0.00086131,0.00024578,-0.00016330,-0.00012101,0.00058414,0.00474923,-0
 .00000601,-0.00155720,0.03500655,-0.02930659,-0.01758099,-0.00055802,-
 0.00005305,-0.00016917,-0.00001927,-0.00023488,-0.00033405,0.00001695,
 0.00017974,-0.00011020,0.00002103,-0.00010886,0.00009910,-0.00005572,-
 0.00004857,-0.00003732,-0.00000483,-0.00000061,0.00001049,-0.00000375,
 -0.00003295,0.00000550,-0.00000471,0.00001366,-0.00001463,-0.00000638,
 -0.00000336,0.00000054,-0.00000154,-0.00000483,0.00000666,0.00001355,0
 .00002081,-0.00002615,-0.00000021,-0.00000169,-0.00000303,0.00000870,0
 .00000407,-0.00000948,-0.00001478,-0.00001627,0.00003201,0.00000358,0.
 00000483,-0.00000525,0.00000172,0.00000226,-0.00000599,-0.00001754,0.0
 0000979,-0.00002778,0.00001866,-0.00000179,0.00000068,0.00000797,0.000
 00277,-0.00000954,-0.00000540,-0.00000088,0.00000146,-0.00005821,-0.00
 004091,-0.00002272,-0.00122959,-0.00141837,-0.00012048,-0.03097233,0.0
 2474698,0.02014088,-0.00000288,0.00000050,-0.00002680,-0.00000323,0.00
 000103,0.00000216,-0.00001125,0.00000939,-0.00001201,-0.00001806,-0.00
 004048,0.00001353,-0.00000243,-0.00000300,-0.00000168,-0.00004218,0.00
 000780,-0.00009298,-0.00004870,-0.00000960,0.00011743,-0.00003613,0.00
 007603,0.00003768,0.00002596,-0.00001089,0.00002937,0.00001078,-0.0000
 3338,-0.00000950,-0.00000561,-0.00000575,0.00001073,0.00001231,0.00000
 032,-0.00000240,0.00006627,0.00026581,-0.00001368,-0.00000085,-0.00000
 180,0.00000023,-0.00000810,-0.00000360,0.00000977,-0.00000721,0.000773
 47,-0.00049763,-0.00006586,0.00003931,0.00000020,0.00007041,0.00346161
 ,0.00029548,-0.00008849,-0.00006297,-0.00008775,-0.00030650,-0.0004717
 4,0.00105400,-0.00001540,0.00000377,-0.00000264,0.00001334,0.00000275,
 -0.00000814,0.00000540,0.00000393,-0.00000106,0.00002369,-0.00000572,0
 .00005934,0.00002563,0.00003460,-0.00001032,0.00003064,-0.00004837,0.0
 0001810,0.00000074,0.00000093,-0.00001859,-0.00000414,-0.00000445,0.00
 000191,-0.00000236,0.00000034,0.00000805,-0.00001135,-0.00000165,-0.00
 000426,-0.00000600,0.00000564,-0.00000237,-0.00000411,0.00000887,-0.00
 001387,0.00002210,-0.00003093,0.00003213,0.00000065,0.00000292,-0.0000
 0529,0.00001601,0.00013165,0.00003408,-0.00086312,-0.00022730,0.000004
 00,-0.00020541,0.00011895,0.00005545,0.00022131,0.00033405,0.00080395,
 0.00320201,0.00379297,0.00342764,0.00054329,-0.00015603,0.00003493,0.0
 0033635,-0.00020160,-0.00043374,-0.00015676,0.00051535,-0.00017845,0.0
 0018892,-0.00004578,0.00004632,-0.00006617,-0.00004741,0.00004859,0.00
 004978,-0.00005369,-0.00000886,-0.00000070,0.00000687,0.00000677,-0.00
 000419,0.00001025,0.00000536,0.00000935,-0.00001095,0.00000821,0.00000
 399,0.00000310,0.00000105,-0.00000843,-0.00000249,0.00000564,-0.000018
 40,-0.00001160,0.00001168,-0.00000025,0.00000183,0.00000211,0.00000257
 ,-0.00000351,0.00000534,0.00000114,0.00001057,-0.00001573,-0.00000249,
 -0.00000167,0.00000268,-0.00000181,0.00000001,0.00000297,-0.00000190,-
 0.00000499,0.00001005,0.00000192,-0.00000030,-0.00000021,0.00001201,0.
 00000685,-0.00000827,0.00001435,-0.00000197,0.00000223,0.00012551,-0.0
 0004188,-0.00001885,-0.12348906,-0.09326279,-0.09371880,0.00040462,0.0
 0035635,0.00033301,0.12006843,0.00001426,0.00004054,-0.00000349,0.0000
 0222,-0.00001162,0.00000333,0.00001414,0.00000398,0.00001239,-0.000029
 12,-0.00009808,-0.00000232,0.00000032,-0.00000366,0.00000133,0.0001331
 1,-0.00047258,0.00023192,0.00001396,-0.00008944,0.00033126,0.00003091,
 -0.00000274,0.00010511,-0.00003295,0.00001595,-0.00000211,0.00002574,0
 .00005554,0.00003461,0.00000576,-0.00000359,0.00000549,-0.00000442,-0.
 00000161,0.00000013,-0.00013842,0.00007216,-0.00024394,-0.00000032,-0.
 00000065,0.00000081,-0.00000160,0.00000126,0.00001137,0.00053222,-0.00
 033451,0.00015630,-0.00002467,0.00003233,0.00004478,-0.00498318,-0.005
 61156,-0.00434618,0.00045244,0.00018542,-0.00031151,-0.00043562,0.0006
 8231,-0.00059775,0.00000456,0.00000089,0.00000627,0.00000199,0.0000032
 3,-0.00000410,-0.00000348,-0.00000127,-0.00000527,-0.00003186,0.000012
 00,0.00001423,-0.00003945,0.00000789,-0.00001276,0.00006671,-0.0000575
 7,-0.00002064,-0.00000669,-0.00000105,-0.00001031,0.00000405,0.0000013
 5,0.00000496,-0.00000050,-0.00000456,-0.00000549,0.00001038,-0.0000016
 4,0.00001305,-0.00001334,0.00001116,-0.00000860,-0.00000680,-0.0000015
 4,-0.00000216,0.00004763,0.00000787,-0.00002599,-0.00002825,0.00001257
 ,-0.00000654,0.00002953,0.00001517,-0.00004727,-0.00046093,0.00002980,
 0.00004262,-0.00027438,-0.00003821,0.00000987,0.00027312,0.00044328,0.
 00049463,0.00093220,-0.00201951,-0.00176352,0.00001003,-0.00152565,-0.
 00115437,-0.00019814,0.00003977,0.00041541,0.00095858,-0.00000869,0.00
 042137,-0.00005746,-0.00004638,-0.00007182,-0.00009095,0.00003679,-0.0
 0006968,-0.00004533,0.00004906,-0.00001381,0.00000573,-0.00000109,-0.0
 0000581,0.00000494,-0.00000054,-0.00000031,-0.00000516,0.00000372,0.00
 000195,-0.00000102,-0.00000012,-0.00000178,0.00000401,0.00000336,-0.00
 000520,0.00000444,-0.00000590,0.00000884,-0.00000014,-0.00000027,0.000
 00022,-0.00000867,-0.00000003,0.00000234,0.00001148,0.00000428,-0.0000
 0988,-0.00000208,-0.00000281,0.00000179,0.,-0.00000122,0.00000317,0.00
 001418,-0.00000248,0.00001449,-0.00001615,0.00000119,-0.00000096,0.000
 00205,-0.00000856,0.00001200,-0.00000742,0.00000227,-0.00000246,-0.000
 12049,-0.00003167,0.00002768,-0.08158015,-0.07405585,-0.06541274,0.000
 21795,-0.00012347,0.00009122,0.08482050,0.08279499,-0.00006365,0.00003
 322,-0.00004985,-0.00000804,0.00000148,-0.00001232,0.00000193,-0.00000
 086,0.00000959,-0.00002244,0.00002019,-0.00000338,0.00000411,0.0000059
 9,-0.00000044,-0.00042669,0.00027296,-0.00010900,-0.00006560,0.0002818
 3,-0.00034442,-0.00000796,0.00005354,-0.00002359,-0.00001932,0.0000042
 8,0.00002080,0.00001157,0.00006982,0.00002843,0.00000713,0.00000925,-0
 .00001366,-0.00002523,-0.00001153,0.00000899,-0.00030971,-0.00048298,0
 .00024426,0.00000059,0.00000561,-0.00000137,0.00000229,0.00000717,-0.0
 0002110,-0.00015725,0.00083023,0.00008903,0.00012335,0.00010079,0.0001
 3847,0.00356105,-0.00027775,0.00282705,-0.00015678,0.00009642,-0.00000
 721,0.00013367,-0.00009394,-0.00015320,0.00002861,-0.00001216,-0.00000
 037,-0.00002589,-0.00000726,0.00001716,-0.00000803,0.00000102,0.000004
 24,-0.00001392,0.00005887,-0.00003594,0.00003958,-0.00000846,-0.000023
 31,0.00005544,-0.00001962,0.00000796,-0.00000918,-0.00001028,0.0000344
 4,0.00000728,0.00000450,-0.00001829,-0.00000489,0.00001673,-0.00001696
 ,-0.00003735,0.00006174,-0.00000174,0.00003072,-0.00002302,0.00002069,
 0.00004309,-0.00005126,0.00002181,-0.00013223,0.00003448,0.00007122,0.
 00004008,-0.00002491,0.00000660,-0.00003608,-0.00011649,0.00006285,0.0
 0049383,-0.00035883,-0.00074593,0.00026060,0.00029576,-0.00005336,0.00
 002802,0.00029659,0.00060973,-0.00525014,-0.00382031,-0.00513973,0.000
 04563,-0.00038821,-0.00022487,0.00014052,-0.00023718,0.00017008,-0.000
 07181,-0.00039290,0.00006814,0.00001017,0.00007896,0.00016809,-0.00001
 507,-0.00000361,-0.00002095,-0.00007340,0.00002944,-0.00002721,0.00000
 107,-0.00001232,0.00002069,0.00000451,-0.00000673,-0.00000166,-0.00000
 584,0.00000273,-0.00001493,-0.00000876,-0.00000427,0.00000216,0.000007
 07,0.00000116,-0.00000285,0.00003055,0.00002841,-0.00003164,-0.0000011
 3,-0.00000214,-0.00000501,0.00000248,0.00000705,-0.00001262,-0.0000097
 2,-0.00002704,0.00004462,0.00000399,0.00000554,-0.00000905,0.00000160,
 0.00000401,-0.00000774,-0.00001099,0.00001618,-0.00003924,0.00001271,-
 0.00000190,0.00000092,-0.00001307,0.00000459,-0.00001336,-0.00001908,0
 .00000182,-0.00000189,0.00001409,0.00004648,-0.00003929,-0.08690387,-0
 .06809287,-0.08857217,0.00011402,0.00005615,-0.00003480,0.08865176,0.0
 7164382,0.09113643\\-0.00000453,-0.00000283,0.00000029,0.00001071,-0.0
 0000123,0.00000192,-0.00000328,0.00000057,-0.00000362,0.,-0.00000372,0
 .00000292,-0.00000697,0.00000896,0.,-0.00001043,0.00000656,-0.00001705
 ,-0.00000155,-0.00000095,0.00000117,0.00001006,0.00000026,-0.00000716,
 -0.00001257,0.00000385,0.00000384,-0.00000574,-0.00000191,0.00000259,-
 0.00000285,0.00000365,-0.00000148,0.00000339,-0.00000847,0.00000375,0.
 00001284,0.00002147,0.00000312,-0.00000076,-0.00000041,0.00000670,0.00
 000179,0.00000034,-0.00000288,-0.00000446,0.00000506,-0.00000024,0.000
 00185,0.00002135,0.00000285,-0.00001076,-0.00002710,-0.00001459,0.0000
 0528,0.00000540,0.00001003,0.00000597,-0.00000292,0.00000891,-0.000020
 07,-0.00002553,-0.00002206,0.00000961,0.00002903,0.00002075,-0.0000009
 5,-0.00000103,0.00000512,0.00001491,0.00000018,-0.00000333,-0.00001151
 ,-0.00000270,0.00001697,-0.00000667,-0.00001527,-0.00000072,-0.0000042
 1,0.00000675,0.00000168,0.00000661,-0.00001257,0.00000593,-0.00000857,
 0.00000544,-0.00000083,0.00000918,-0.00000213,-0.00001856,-0.00000227,
 -0.00000815,-0.00000027,0.00000221,0.00000599,-0.00000414,-0.00005232,
 0.00000495,0.00001705,0.00000385,-0.00000344,0.00000444,0.00000943,0.0
 0000671,0.00000202,0.00002761,-0.00004738,-0.00003340,-0.00001811,-0.0
 0001053,0.00001399,-0.00000758,-0.00002497,0.00001081,-0.00001775,0.00
 005552,-0.00000259,0.00002909,0.00000003,0.00000312,-0.00000321,-0.000
 00900,-0.00002088,-0.00001630,0.00003040,-0.00003437,-0.00000480,-0.00
 001152,0.00000925,-0.00000233,-0.00000573,0.00000943,0.00000773,0.0000
 1118,-0.00000006,0.00000600,-0.00000089,0.00000301,-0.00000137,0.00000
 357,0.00000138,0.00000038,0.00000285,0.00000480,0.00000073,0.00000413,
 0.00000003,-0.00000052,0.00000285,0.00000230,0.00000022,-0.00001421,-0
 .00000080,-0.00000198,0.00001360,-0.00000135,0.00000239,0.00000324,-0.
 00000506,-0.00000871,-0.00001826,0.00000484,0.00000437,-0.00000007,-0.
 00000430,-0.00000182,0.00000139,-0.00000339,0.00000577,0.00000325,0.00
 000858,0.00000157,-0.00000129,-0.00000203,0.00003104,0.00000491,-0.000
 00599,-0.00000087,0.00000086,-0.00000122,0.00001071,-0.00000711,0.0000
 0695,0.00001585,-0.00002167,0.00000359,0.00000957,0.00000920,0.0000002
 2,-0.00000492,0.00000948,0.00000804\\\@
 The archive entry for this job was punched.


 A MAN SHOULD NEVER BE ASHAMED TO OWN HE HAS BEEN IN THE WRONG
 WHICH IS BUT SAYING IN OTHER WORDS,
 THAT HE IS WISER TODAY THAN HE WAS YESTERDAY.

                          -- JONATHAN SWIFT
 Job cpu time:       6 days  0 hours 47 minutes 39.4 seconds.
 Elapsed time:       0 days  3 hours  1 minutes 27.2 seconds.
 File lengths (MBytes):  RWF=  13270 Int=      0 D2E=      0 Chk=    132 Scr=      2
 Normal termination of Gaussian 16 at Mon Feb 13 23:04:08 2023.
