 Entering Gaussian System, Link 0=g16
 Initial command:
 /home/chesagar/softwares/G16_AVX2//g16/l1.exe "/home/chesagar/scratch/Gau-26778.inp" -scrdir="/home/chesagar/scratch/"
 Entering Link 1 = /home/chesagar/softwares/G16_AVX2//g16/l1.exe PID=     26779.
  
 Copyright (c) 1988-2019, Gaussian, Inc.  All Rights Reserved.
  
 This is part of the Gaussian(R) 16 program.  It is based on
 the Gaussian(R) 09 system (copyright 2009, Gaussian, Inc.),
 the Gaussian(R) 03 system (copyright 2003, Gaussian, Inc.),
 the Gaussian(R) 98 system (copyright 1998, Gaussian, Inc.),
 the Gaussian(R) 94 system (copyright 1995, Gaussian, Inc.),
 the Gaussian 92(TM) system (copyright 1992, Gaussian, Inc.),
 the Gaussian 90(TM) system (copyright 1990, Gaussian, Inc.),
 the Gaussian 88(TM) system (copyright 1988, Gaussian, Inc.),
 the Gaussian 86(TM) system (copyright 1986, Carnegie Mellon
 University), and the Gaussian 82(TM) system (copyright 1983,
 Carnegie Mellon University). Gaussian is a federally registered
 trademark of Gaussian, Inc.
  
 This software contains proprietary and confidential information,
 including trade secrets, belonging to Gaussian, Inc.
  
 This software is provided under written license and may be
 used, copied, transmitted, or stored only in accord with that
 written license.
  
 The following legend is applicable only to US Government
 contracts under FAR:
  
                    RESTRICTED RIGHTS LEGEND
  
 Use, reproduction and disclosure by the US Government is
 subject to restrictions as set forth in subparagraphs (a)
 and (c) of the Commercial Computer Software - Restricted
 Rights clause in FAR 52.227-19.
  
 Gaussian, Inc.
 340 Quinnipiac St., Bldg. 40, Wallingford CT 06492
  
  
 ---------------------------------------------------------------
 Warning -- This program may not be used in any manner that
 competes with the business of Gaussian, Inc. or will provide
 assistance to any competitor of Gaussian, Inc.  The licensee
 of this program is prohibited from giving any competitor of
 Gaussian, Inc. access to this program.  By using this program,
 the user acknowledges that Gaussian, Inc. is engaged in the
 business of creating and licensing software in the field of
 computational chemistry and represents and warrants to the
 licensee that it is not a competitor of Gaussian, Inc. and that
 it will not use this program in any manner prohibited above.
 ---------------------------------------------------------------
  

 Cite this work as:
 Gaussian 16, Revision C.01,
 M. J. Frisch, G. W. Trucks, H. B. Schlegel, G. E. Scuseria, 
 M. A. Robb, J. R. Cheeseman, G. Scalmani, V. Barone, 
 G. A. Petersson, H. Nakatsuji, X. Li, M. Caricato, A. V. Marenich, 
 J. Bloino, B. G. Janesko, R. Gomperts, B. Mennucci, H. P. Hratchian, 
 J. V. Ortiz, A. F. Izmaylov, J. L. Sonnenberg, D. Williams-Young, 
 F. Ding, F. Lipparini, F. Egidi, J. Goings, B. Peng, A. Petrone, 
 T. Henderson, D. Ranasinghe, V. G. Zakrzewski, J. Gao, N. Rega, 
 G. Zheng, W. Liang, M. Hada, M. Ehara, K. Toyota, R. Fukuda, 
 J. Hasegawa, M. Ishida, T. Nakajima, Y. Honda, O. Kitao, H. Nakai, 
 T. Vreven, K. Throssell, J. A. Montgomery, Jr., J. E. Peralta, 
 F. Ogliaro, M. J. Bearpark, J. J. Heyd, E. N. Brothers, K. N. Kudin, 
 V. N. Staroverov, T. A. Keith, R. Kobayashi, J. Normand, 
 K. Raghavachari, A. P. Rendell, J. C. Burant, S. S. Iyengar, 
 J. Tomasi, M. Cossi, J. M. Millam, M. Klene, C. Adamo, R. Cammi, 
 J. W. Ochterski, R. L. Martin, K. Morokuma, O. Farkas, 
 J. B. Foresman, and D. J. Fox, Gaussian, Inc., Wallingford CT, 2019.
 
 ******************************************
 Gaussian 16:  ES64L-G16RevC.01  3-Jul-2019
                21-Feb-2023 
 ******************************************
 %nprocshared=48
 Will use up to   48 processors via shared memory.
 %mem=100GB
 ----------------------------------------------------------------------
 # opt=(qst3,redundant) freq b3lyp/gen nosymm pseudo=read scf=maxcycles
 =500
 ----------------------------------------------------------------------
 1/5=1,18=20,26=3,27=203,38=1/1,3;
 2/9=110,12=2,15=1,17=6,18=5,40=1/2;
 3/5=7,11=2,16=1,17=8,25=1,30=1,71=1,74=-5/1,2,3;
 4//1;
 5/5=2,7=500,38=5/2;
 6/7=2,8=2,9=2,10=2,28=1/1;
 7/30=1/1,2,3,16;
 1/5=1,18=20,26=3,27=203/3(2);
 2/9=110,15=1/2;
 99//99;
 2/9=110,15=1/2;
 3/5=7,6=1,11=2,16=1,17=8,25=1,30=1,71=1,74=-5,82=7/1,2,3;
 4/5=5,16=3,69=1/1;
 5/5=2,7=500,38=5/2;
 7/30=1/1,2,3,16;
 1/5=1,18=20,26=3,27=203/3(-5);
 2/9=110,15=1/2;
 6/7=2,8=2,9=2,10=2,19=2,28=1/1;
 99/9=1/99;
 -------------------
 Title Card Required
 -------------------
 Symbolic Z-matrix:
 Charge =  0 Multiplicity = 1
 42                    0.14204   1.40854   12.64957 
 16                    2.15891   2.31609   13.70212 
 16                   -0.92366   2.19454   14.83404 
 16                   -0.628     1.04595   10.37967 
 16                    1.76552  -0.35255   12.07545 
 42                   -2.19386   2.77994   11.02441 
 16                   -3.00284   2.5476    8.73306 
 16                   -0.21897   3.70958   12.06452 
 42                    0.83937   2.95854   9.98816 
 16                    0.0462    2.66361   7.69077 
 16                    2.47362   1.22103   9.39471 
 42                    3.24213   1.52772   11.67658 
 42                   -1.50308   4.42986   8.3452 
 16                    5.33656   2.42686   12.86367 
 16                    2.87006   3.83806   11.05589 
 16                   -2.48183   5.12496   10.46282 
 16                    1.25595   6.91541   6.49958 
 42                   -4.49179   4.32217   9.4629 
 16                   -6.0425    2.33866   9.72426 
 16                   -5.56611   4.8924    11.43026 
 42                    2.37744   0.03174   14.36114 
 16                    4.46119  -1.05086   14.76641 
 16                    1.48601   0.82053   16.36914 
 42                    1.49067   4.564     7.33409 
 16                    0.63075   4.31757   4.95155 
 16                    0.4923    5.30283   9.3933 
 42                    3.91996   3.12596   8.98419 
 16                    3.14431   2.84613   6.70371 
 16                    3.474     5.45478   8.44322 
 42                    4.50745   4.79562   6.42197 
 16                    6.69181   4.05268   6.02632 
 16                    4.29319   6.96657   5.71215 
 42                    2.36823   5.92106   4.495 
 16                    3.8758    4.32279   4.03806 
 16                   -1.33682   7.25421   3.99728 
 42                   -0.94699   6.07464   5.70475 
 16                   -2.38331   4.18185   5.95663 
 16                   -1.76934   6.93129   7.77886 
 42                   -3.70892   6.02361   6.71989 
 16                   -5.40317   4.18941   7.06015 
 16                   -4.62424   7.20265   5.22707 
 42                   -5.33455   2.43784   11.8418 
 16                   -3.42842   3.40786   13.12637 
 16                   -3.65149   0.7575    11.52901 
 42                   -2.78861   1.1087    13.83147 
 16                   -1.31259  -0.62406   13.13827 
 16                   -4.28557   0.47985   15.18212 
 42                   -0.53607  -0.13884   15.38371 
 16                    1.06381  -1.86317   14.75123 
 16                   -1.53628  -1.00464   17.03685 
 42                    5.61359   0.12944   13.22232 
 16                    4.95127  -0.3599    11.06228 
 16                    8.25006   1.26356   10.97509 
 42                    6.21104   1.75297   10.64304 
 16                    5.66515   1.27132   8.29356 
 16                    6.03539   4.12317   10.05763 
 42                    6.97027   3.17908   8.12472 
 16                    9.04885   2.81202   8.30619 
 16                    2.10224   6.96624   2.67262 
 16                    7.66008  -0.34632   13.56035 
 16                   -6.99167   1.84972   13.02187 
 16                   -4.90752   6.7261    8.79916 
 1                    -6.48428   4.96979   7.28729 
 1                    -4.03666   7.43727   9.54447 
 
 -------
 product
 -------
 Symbolic Z-matrix:
 Charge =  0 Multiplicity = 1
 42                    0.14469   1.40639   12.64543 
 16                    2.15809   2.31768   13.70196 
 16                   -0.93142   2.19632   14.82355 
 16                   -0.61595   1.03933   10.37408 
 16                    1.77207  -0.35376   12.07873 
 42                   -2.18589   2.77332   11.01053 
 16                   -2.98006   2.53158   8.71683 
 16                   -0.2141    3.70555   12.05599 
 42                    0.85151   2.9526    9.98371 
 16                    0.06665   2.65423   7.6846 
 16                    2.4882    1.21644   9.39616 
 42                    3.24845   1.52758   11.68018 
 42                   -1.48772   4.41701   8.33408 
 16                    5.33842   2.43093   12.8714 
 16                    2.87719   3.83686   11.05519 
 16                   -2.46358   5.11692   10.4519 
 16                    1.2632    6.9066    6.48715 
 42                   -4.46735   4.3099    9.44156 
 16                   -6.02756   2.33489   9.69634 
 16                   -5.55801   4.89356   11.38939 
 42                    2.37482   0.035     14.36586 
 16                    4.45917  -1.04449   14.77693 
 16                    1.47395   0.82652   16.36868 
 42                    1.50575   4.55692   7.32697 
 16                    0.64494   4.30648   4.94404 
 16                    0.50515   5.29547   9.3843 
 42                    3.9322    3.12356   8.98626 
 16                    3.1634    2.84064   6.70281 
 16                    3.48502   5.45201   8.4405 
 42                    4.52236   4.79256   6.4225 
 16                    6.7089    4.05125   6.03458 
 16                    4.30328   6.96086   5.70735 
 42                    2.38071   5.91013   4.4875 
 16                    3.89519   4.31749   4.03645 
 16                   -1.35089   7.24234   3.99082 
 42                   -0.94106   6.06105   5.6923 
 16                   -2.36749   4.16216   5.9449 
 16                   -1.75237   6.91352   7.76836 
 42                   -3.70104   6.00664   6.70771 
 16                   -5.35626   4.14908   7.03505 
 16                   -4.67556   7.20781   5.2704 
 42                   -5.32817   2.43196   11.81811 
 16                   -3.43209   3.40871   13.10586 
 16                   -3.64713   0.75085   11.51044 
 42                   -2.79352   1.10945   13.81455 
 16                   -1.31293  -0.62471   13.13156 
 16                   -4.29566   0.48053   15.15967 
 42                   -0.54465  -0.13539   15.37813 
 16                    1.05945  -1.85931   14.75423 
 16                   -1.55085  -0.99889   17.02887 
 42                    5.61566   0.13427   13.2344 
 16                    4.96096  -0.35866   11.07286 
 16                    8.25841   1.26841   10.99185 
 42                    6.21985   1.75518   10.65377 
 16                    5.6807    1.27002   8.30321 
 16                    6.04328   4.12449   10.06442 
 42                    6.98318   3.17956   8.13443 
 16                    9.06163   2.81489   8.3223 
 16                    2.10459   6.95064   2.66436 
 16                    7.66158  -0.33908   13.57879 
 16                   -6.99485   1.8554    12.99075 
 16                   -4.72778   6.79629   8.86554 
 1                    -6.46327   4.89239   7.25474 
 1                    -6.02927   6.71535   8.5137 
 
 --
 ts
 --
 Symbolic Z-matrix:
 Charge =  0 Multiplicity = 1
 42                    0.14204   1.40854   12.64957 
 16                    2.15891   2.31609   13.70212 
 16                   -0.92366   2.19454   14.83404 
 16                   -0.628     1.04595   10.37967 
 16                    1.76552  -0.35255   12.07545 
 42                   -2.19386   2.77994   11.02441 
 16                   -3.00284   2.5476    8.73306 
 16                   -0.21897   3.70958   12.06452 
 42                    0.83937   2.95854   9.98816 
 16                    0.0462    2.66361   7.69077 
 16                    2.47362   1.22103   9.39471 
 42                    3.24213   1.52772   11.67658 
 42                   -1.50308   4.42986   8.3452 
 16                    5.33656   2.42686   12.86367 
 16                    2.87006   3.83806   11.05589 
 16                   -2.48183   5.12496   10.46282 
 16                    1.25595   6.91541   6.49958 
 42                   -4.49179   4.32217   9.4629 
 16                   -6.0425    2.33866   9.72426 
 16                   -5.56611   4.8924    11.43026 
 42                    2.37744   0.03174   14.36114 
 16                    4.46119  -1.05086   14.76641 
 16                    1.48601   0.82053   16.36914 
 42                    1.49067   4.564     7.33409 
 16                    0.63075   4.31757   4.95155 
 16                    0.4923    5.30283   9.3933 
 42                    3.91996   3.12596   8.98419 
 16                    3.14431   2.84613   6.70371 
 16                    3.474     5.45478   8.44322 
 42                    4.50745   4.79562   6.42197 
 16                    6.69181   4.05268   6.02632 
 16                    4.29319   6.96657   5.71215 
 42                    2.36823   5.92106   4.495 
 16                    3.8758    4.32279   4.03806 
 16                   -1.33682   7.25421   3.99728 
 42                   -0.94699   6.07464   5.70475 
 16                   -2.38331   4.18185   5.95663 
 16                   -1.76934   6.93129   7.77886 
 42                   -3.70892   6.02361   6.71989 
 16                   -5.40317   4.18941   7.06015 
 16                   -4.62424   7.20265   5.22707 
 42                   -5.33455   2.43784   11.8418 
 16                   -3.42842   3.40786   13.12637 
 16                   -3.65149   0.7575    11.52901 
 42                   -2.78861   1.1087    13.83147 
 16                   -1.31259  -0.62406   13.13827 
 16                   -4.28557   0.47985   15.18212 
 42                   -0.53607  -0.13884   15.38371 
 16                    1.06381  -1.86317   14.75123 
 16                   -1.53628  -1.00464   17.03685 
 42                    5.61359   0.12944   13.22232 
 16                    4.95127  -0.3599    11.06228 
 16                    8.25006   1.26356   10.97509 
 42                    6.21104   1.75297   10.64304 
 16                    5.66515   1.27132   8.29356 
 16                    6.03539   4.12317   10.05763 
 42                    6.97027   3.17908   8.12472 
 16                    9.04885   2.81202   8.30619 
 16                    2.10224   6.96624   2.67262 
 16                    7.66008  -0.34632   13.56035 
 16                   -6.99167   1.84972   13.02187 
 16                   -4.90752   6.7261    8.79916 
 1                    -6.48428   4.96979   7.28729 
 1                    -5.95527   7.54781   9.01517 
 

 GradGradGradGradGradGradGradGradGradGradGradGradGradGradGradGradGradGrad
 Berny optimization.
 Initialization pass.
                           ----------------------------
                           !    Initial Parameters    !
                           ! (Angstroms and Degrees)  !
 --------------------------                            --------------------------
 ! Name  Definition         TS        Reactant Product Derivative Info.         !
 --------------------------------------------------------------------------------
 ! R1    R(1,2)             2.4493    2.4493    2.4496 estimate D2E/DX2         !
 ! R2    R(1,3)             2.5545    2.5545    2.5546 estimate D2E/DX2         !
 ! R3    R(1,4)             2.4242    2.4242    2.4233 estimate D2E/DX2         !
 ! R4    R(1,5)             2.4631    2.4631    2.4633 estimate D2E/DX2         !
 ! R5    R(1,8)             2.4015    2.4015    2.4005 estimate D2E/DX2         !
 ! R6    R(1,46)            2.5468    2.5468    2.5468 estimate D2E/DX2         !
 ! R7    R(2,12)            2.4285    2.4285    2.4291 estimate D2E/DX2         !
 ! R8    R(2,21)            2.3875    2.3875    2.3871 estimate D2E/DX2         !
 ! R9    R(3,45)            2.3795    2.3795    2.3805 estimate D2E/DX2         !
 ! R10   R(3,48)            2.4284    2.4284    2.4278 estimate D2E/DX2         !
 ! R11   R(4,6)             2.4237    2.4237    2.4241 estimate D2E/DX2         !
 ! R12   R(4,9)             2.4422    2.4422    2.4426 estimate D2E/DX2         !
 ! R13   R(5,12)            2.4238    2.4238    2.4245 estimate D2E/DX2         !
 ! R14   R(5,21)            2.3972    2.3972    2.397  estimate D2E/DX2         !
 ! R15   R(6,7)             2.4411    2.4411    2.4393 estimate D2E/DX2         !
 ! R16   R(6,8)             2.4179    2.4179    2.4187 estimate D2E/DX2         !
 ! R17   R(6,16)            2.4285    2.4285    2.4252 estimate D2E/DX2         !
 ! R18   R(6,43)            2.5173    2.5173    2.5194 estimate D2E/DX2         !
 ! R19   R(6,44)            2.5435    2.5435    2.5447 estimate D2E/DX2         !
 ! R20   R(7,13)            2.4377    2.4377    2.4348 estimate D2E/DX2         !
 ! R21   R(7,18)            2.4287    2.4287    2.4289 estimate D2E/DX2         !
 ! R22   R(8,9)             2.4486    2.4486    2.4488 estimate D2E/DX2         !
 ! R23   R(9,10)            2.4483    2.4483    2.4476 estimate D2E/DX2         !
 ! R24   R(9,11)            2.458     2.458     2.4573 estimate D2E/DX2         !
 ! R25   R(9,15)            2.4571    2.4571    2.4563 estimate D2E/DX2         !
 ! R26   R(9,26)            2.4434    2.4434    2.443  estimate D2E/DX2         !
 ! R27   R(10,13)           2.4389    2.4389    2.4383 estimate D2E/DX2         !
 ! R28   R(10,24)           2.4135    2.4135    2.4123 estimate D2E/DX2         !
 ! R29   R(11,12)           2.4273    2.4273    2.4272 estimate D2E/DX2         !
 ! R30   R(11,27)           2.4268    2.4268    2.427  estimate D2E/DX2         !
 ! R31   R(12,14)           2.5699    2.5699    2.5696 estimate D2E/DX2         !
 ! R32   R(12,15)           2.421     2.421     2.421  estimate D2E/DX2         !
 ! R33   R(12,52)           2.6195    2.6195    2.619  estimate D2E/DX2         !
 ! R34   R(13,16)           2.4342    2.4342    2.4346 estimate D2E/DX2         !
 ! R35   R(13,26)           2.4171    2.4171    2.4179 estimate D2E/DX2         !
 ! R36   R(13,37)           2.5577    2.5577    2.5587 estimate D2E/DX2         !
 ! R37   R(13,38)           2.5785    2.5785    2.5735 estimate D2E/DX2         !
 ! R38   R(14,51)           2.3417    2.3417    2.3416 estimate D2E/DX2         !
 ! R39   R(14,54)           2.4799    2.4799    2.4802 estimate D2E/DX2         !
 ! R40   R(15,27)           2.4293    2.4293    2.4295 estimate D2E/DX2         !
 ! R41   R(16,18)           2.3842    2.3842    2.3848 estimate D2E/DX2         !
 ! R42   R(17,24)           2.5061    2.5061    2.507  estimate D2E/DX2         !
 ! R43   R(17,33)           2.4988    2.4988    2.4981 estimate D2E/DX2         !
 ! R44   R(17,36)           2.4883    2.4883    2.4911 estimate D2E/DX2         !
 ! R45   R(18,19)           2.5313    2.5313    2.5298 estimate D2E/DX2         !
 ! R46   R(18,20)           2.313     2.313     2.3074 estimate D2E/DX2         !
 ! R47   R(18,40)           2.5732    2.5732    2.5705 estimate D2E/DX2         !
 ! R48   R(18,62)           2.5283    2.5283    2.5655 estimate D2E/DX2         !
 ! R49   R(19,42)           2.235     2.235     2.2362 estimate D2E/DX2         !
 ! R50   R(20,42)           2.4996    2.4996    2.5092 estimate D2E/DX2         !
 ! R51   R(21,22)           2.3829    2.3829    2.383  estimate D2E/DX2         !
 ! R52   R(21,23)           2.3343    2.3343    2.3344 estimate D2E/DX2         !
 ! R53   R(21,48)           3.0925    3.0925    3.0947 estimate D2E/DX2         !
 ! R54   R(21,49)           2.3385    2.3385    2.3387 estimate D2E/DX2         !
 ! R55   R(22,51)           2.2595    2.2595    2.2597 estimate D2E/DX2         !
 ! R56   R(23,48)           2.4455    2.4455    2.4457 estimate D2E/DX2         !
 ! R57   R(24,25)           2.5449    2.5449    2.546  estimate D2E/DX2         !
 ! R58   R(24,26)           2.4048    2.4048    2.404  estimate D2E/DX2         !
 ! R59   R(24,28)           2.4664    2.4664    2.4664 estimate D2E/DX2         !
 ! R60   R(24,29)           2.4407    2.4407    2.441  estimate D2E/DX2         !
 ! R61   R(25,33)           2.408     2.408     2.4069 estimate D2E/DX2         !
 ! R62   R(25,36)           2.4787    2.4787    2.4807 estimate D2E/DX2         !
 ! R63   R(27,28)           2.425     2.425     2.426  estimate D2E/DX2         !
 ! R64   R(27,29)           2.4321    2.4321    2.433  estimate D2E/DX2         !
 ! R65   R(27,30)           3.1141    3.1141    3.1156 estimate D2E/DX2         !
 ! R66   R(27,55)           2.6386    2.6386    2.6381 estimate D2E/DX2         !
 ! R67   R(27,56)           2.5733    2.5733    2.5731 estimate D2E/DX2         !
 ! R68   R(28,30)           2.3954    2.3954    2.3949 estimate D2E/DX2         !
 ! R69   R(29,30)           2.3639    2.3639    2.3629 estimate D2E/DX2         !
 ! R70   R(30,31)           2.3409    2.3409    2.3412 estimate D2E/DX2         !
 ! R71   R(30,32)           2.2941    2.2941    2.2937 estimate D2E/DX2         !
 ! R72   R(30,33)           3.0913    3.0913    3.0951 estimate D2E/DX2         !
 ! R73   R(30,34)           2.5111    2.5111    2.5124 estimate D2E/DX2         !
 ! R74   R(31,57)           2.29      2.29      2.2901 estimate D2E/DX2         !
 ! R75   R(32,33)           2.506     2.506     2.5076 estimate D2E/DX2         !
 ! R76   R(33,34)           2.2441    2.2441    2.2436 estimate D2E/DX2         !
 ! R77   R(33,59)           2.1176    2.1176    2.1172 estimate D2E/DX2         !
 ! R78   R(35,36)           2.1116    2.1116    2.1115 estimate D2E/DX2         !
 ! R79   R(36,37)           2.3894    2.3894    2.3884 estimate D2E/DX2         !
 ! R80   R(36,38)           2.39      2.39      2.3864 estimate D2E/DX2         !
 ! R81   R(36,39)           2.943     2.943     2.9414 estimate D2E/DX2         !
 ! R82   R(37,39)           2.3941    2.3941    2.4005 estimate D2E/DX2         !
 ! R83   R(38,39)           2.389     2.389     2.3968 estimate D2E/DX2         !
 ! R84   R(39,40)           2.52      2.52      2.5095 estimate D2E/DX2         !
 ! R85   R(39,41)           2.111     2.111     2.1115 estimate D2E/DX2         !
 ! R86   R(39,62)           2.5007    2.5007    2.5167 estimate D2E/DX2         !
 ! R87   R(40,63)           1.3525    1.3525    1.3514 estimate D2E/DX2         !
 ! R88   R(42,43)           2.4949    2.4949    2.4915 estimate D2E/DX2         !
 ! R89   R(42,44)           2.3988    2.3988    2.3972 estimate D2E/DX2         !
 ! R90   R(42,61)           2.1177    2.1177    2.1179 estimate D2E/DX2         !
 ! R91   R(43,45)           2.4885    2.4885    2.4893 estimate D2E/DX2         !
 ! R92   R(44,45)           2.4838    2.4838    2.4832 estimate D2E/DX2         !
 ! R93   R(45,46)           2.3794    2.3794    2.3803 estimate D2E/DX2         !
 ! R94   R(45,47)           2.112     2.112     2.1122 estimate D2E/DX2         !
 ! R95   R(45,48)           3.0066    3.0066    3.0086 estimate D2E/DX2         !
 ! R96   R(46,48)           2.425     2.425     2.4242 estimate D2E/DX2         !
 ! R97   R(48,49)           2.4358    2.4358    2.436  estimate D2E/DX2         !
 ! R98   R(48,50)           2.1173    2.1173    2.1173 estimate D2E/DX2         !
 ! R99   R(51,52)           2.3117    2.3117    2.3117 estimate D2E/DX2         !
 ! R100  R(51,54)           3.1057    3.1057    3.1068 estimate D2E/DX2         !
 ! R101  R(51,60)           2.1281    2.1281    2.128  estimate D2E/DX2         !
 ! R102  R(52,54)           2.4954    2.4954    2.4958 estimate D2E/DX2         !
 ! R103  R(53,54)           2.1231    2.1231    2.123  estimate D2E/DX2         !
 ! R104  R(54,55)           2.4597    2.4597    2.4599 estimate D2E/DX2         !
 ! R105  R(54,56)           2.4477    2.4477    2.4479 estimate D2E/DX2         !
 ! R106  R(54,57)           2.992     2.992     2.9931 estimate D2E/DX2         !
 ! R107  R(55,57)           2.3176    2.3176    2.3176 estimate D2E/DX2         !
 ! R108  R(56,57)           2.3455    2.3455    2.3455 estimate D2E/DX2         !
 ! R109  R(57,58)           2.1185    2.1185    2.1185 estimate D2E/DX2         !
 ! R110  R(62,64)           1.3489    1.3489    1.3506 estimate D2E/DX2         !
 ! A1    A(2,1,3)          82.0699   82.0699   82.1521 estimate D2E/DX2         !
 ! A2    A(2,1,4)         136.0008  136.0008  135.9398 estimate D2E/DX2         !
 ! A3    A(2,1,5)          79.7667   79.7667   79.7487 estimate D2E/DX2         !
 ! A4    A(2,1,8)          82.7297   82.7297   82.6715 estimate D2E/DX2         !
 ! A5    A(2,1,46)        133.123   133.123   133.2177 estimate D2E/DX2         !
 ! A6    A(3,1,4)         135.5791  135.5791  135.5424 estimate D2E/DX2         !
 ! A7    A(3,1,5)         133.9719  133.9719  134.059  estimate D2E/DX2         !
 ! A8    A(3,1,8)          81.4195   81.4195   81.3868 estimate D2E/DX2         !
 ! A9    A(3,1,46)         80.9786   80.9786   80.9539 estimate D2E/DX2         !
 ! A10   A(4,1,5)          83.3485   83.3485   83.3101 estimate D2E/DX2         !
 ! A11   A(4,1,8)          82.3833   82.3833   82.4153 estimate D2E/DX2         !
 ! A12   A(4,1,46)         83.043    83.043    83.0193 estimate D2E/DX2         !
 ! A13   A(5,1,8)         136.6665  136.6665  136.6067 estimate D2E/DX2         !
 ! A14   A(5,1,46)         81.4053   81.4053   81.4985 estimate D2E/DX2         !
 ! A15   A(8,1,46)        136.5177  136.5177  136.4828 estimate D2E/DX2         !
 ! A16   A(1,2,12)         83.6028   83.6028   83.6247 estimate D2E/DX2         !
 ! A17   A(1,2,21)         80.7625   80.7625   80.7257 estimate D2E/DX2         !
 ! A18   A(12,2,21)        83.0385   83.0385   83.0904 estimate D2E/DX2         !
 ! A19   A(1,3,45)         79.9947   79.9947   80.0341 estimate D2E/DX2         !
 ! A20   A(1,3,48)         80.2894   80.2894   80.2515 estimate D2E/DX2         !
 ! A21   A(1,4,6)          81.3226   81.3226   81.3064 estimate D2E/DX2         !
 ! A22   A(1,4,9)          80.916    80.916    80.9426 estimate D2E/DX2         !
 ! A23   A(6,4,9)          82.5616   82.5616   82.5738 estimate D2E/DX2         !
 ! A24   A(1,5,12)         83.4107   83.4107   83.4337 estimate D2E/DX2         !
 ! A25   A(1,5,21)         80.2924   80.2924   80.2542 estimate D2E/DX2         !
 ! A26   A(12,5,21)        82.937    82.937    82.9852 estimate D2E/DX2         !
 ! A27   A(4,6,7)          84.0485   84.0485   83.8625 estimate D2E/DX2         !
 ! A28   A(4,6,8)          82.0572   82.0572   82.0224 estimate D2E/DX2         !
 ! A29   A(4,6,16)        134.9059  134.9059  134.8221 estimate D2E/DX2         !
 ! A30   A(4,6,43)        135.8432  135.8432  135.9807 estimate D2E/DX2         !
 ! A31   A(4,6,44)         81.6136   81.6136   81.6603 estimate D2E/DX2         !
 ! A32   A(7,6,8)         135.3223  135.3223  135.2398 estimate D2E/DX2         !
 ! A33   A(7,6,16)         80.5342   80.5342   80.9033 estimate D2E/DX2         !
 ! A34   A(7,6,43)        130.1669  130.1669  130.2407 estimate D2E/DX2         !
 ! A35   A(7,6,44)         85.447    85.447    85.3544 estimate D2E/DX2         !
 ! A36   A(8,6,16)         79.9249   79.9249   79.6566 estimate D2E/DX2         !
 ! A37   A(8,6,43)         86.8741   86.8741   86.9363 estimate D2E/DX2         !
 ! A38   A(8,6,44)        133.5072  133.5072  133.594  estimate D2E/DX2         !
 ! A39   A(16,6,43)        83.9193   83.9193   83.755  estimate D2E/DX2         !
 ! A40   A(16,6,44)       138.2218  138.2218  138.3771 estimate D2E/DX2         !
 ! A41   A(43,6,44)        75.6188   75.6188   75.7009 estimate D2E/DX2         !
 ! A42   A(6,7,13)         82.6439   82.6439   82.6187 estimate D2E/DX2         !
 ! A43   A(6,7,18)         81.4629   81.4629   81.1548 estimate D2E/DX2         !
 ! A44   A(13,7,18)        81.9992   81.9992   81.6783 estimate D2E/DX2         !
 ! A45   A(1,8,6)          81.905    81.905    81.8843 estimate D2E/DX2         !
 ! A46   A(1,8,9)          81.2406   81.2406   81.2723 estimate D2E/DX2         !
 ! A47   A(6,8,9)          82.549    82.549    82.557  estimate D2E/DX2         !
 ! A48   A(4,9,8)          81.0583   81.0583   81.0352 estimate D2E/DX2         !
 ! A49   A(4,9,10)         82.0354   82.0354   82.0671 estimate D2E/DX2         !
 ! A50   A(4,9,11)         83.3736   83.3736   83.393  estimate D2E/DX2         !
 ! A51   A(4,9,15)        135.0099  135.0099  135.0494 estimate D2E/DX2         !
 ! A52   A(4,9,26)        134.8347  134.8347  134.8468 estimate D2E/DX2         !
 ! A53   A(8,9,10)        133.84    133.84    133.8543 estimate D2E/DX2         !
 ! A54   A(8,9,11)        135.148   135.148   135.187  estimate D2E/DX2         !
 ! A55   A(8,9,15)         83.0463   83.0463   83.052  estimate D2E/DX2         !
 ! A56   A(8,9,26)         81.4172   81.4172   81.4351 estimate D2E/DX2         !
 ! A57   A(10,9,11)        84.4733   84.4733   84.4252 estimate D2E/DX2         !
 ! A58   A(10,9,15)       135.9419  135.9419  135.8961 estimate D2E/DX2         !
 ! A59   A(10,9,26)        80.8572   80.8572   80.8498 estimate D2E/DX2         !
 ! A60   A(11,9,15)        78.9572   78.9572   79.0098 estimate D2E/DX2         !
 ! A61   A(11,9,26)       135.5506  135.5506  135.5074 estimate D2E/DX2         !
 ! A62   A(15,9,26)        83.0935   83.0935   83.0336 estimate D2E/DX2         !
 ! A63   A(9,10,13)        82.3437   82.3437   82.3039 estimate D2E/DX2         !
 ! A64   A(9,10,24)        81.3693   81.3693   81.4779 estimate D2E/DX2         !
 ! A65   A(13,10,24)       81.3505   81.3505   81.3476 estimate D2E/DX2         !
 ! A66   A(9,11,12)        83.9278   83.9278   83.8609 estimate D2E/DX2         !
 ! A67   A(9,11,27)        83.2365   83.2365   83.1929 estimate D2E/DX2         !
 ! A68   A(12,11,27)       82.5969   82.5969   82.6369 estimate D2E/DX2         !
 ! A69   A(2,12,5)         80.9581   80.9581   80.9226 estimate D2E/DX2         !
 ! A70   A(2,12,11)       133.1491  133.1491  133.1797 estimate D2E/DX2         !
 ! A71   A(2,12,14)        82.222    82.222    82.2355 estimate D2E/DX2         !
 ! A72   A(2,12,15)        80.5315   80.5315   80.5478 estimate D2E/DX2         !
 ! A73   A(2,12,52)       136.1007  136.1007  136.1162 estimate D2E/DX2         !
 ! A74   A(5,12,11)        82.1723   82.1723   82.2117 estimate D2E/DX2         !
 ! A75   A(5,12,14)       133.7807  133.7807  133.7784 estimate D2E/DX2         !
 ! A76   A(5,12,15)       133.5388  133.5388  133.5692 estimate D2E/DX2         !
 ! A77   A(5,12,52)        82.939    82.939    82.9596 estimate D2E/DX2         !
 ! A78   A(11,12,14)      137.4342  137.4342  137.3947 estimate D2E/DX2         !
 ! A79   A(11,12,15)       80.2644   80.2644   80.289  estimate D2E/DX2         !
 ! A80   A(11,12,52)       83.9768   83.9768   83.9315 estimate D2E/DX2         !
 ! A81   A(14,12,15)       84.8246   84.8246   84.7829 estimate D2E/DX2         !
 ! A82   A(14,12,52)       80.1359   80.1359   80.1466 estimate D2E/DX2         !
 ! A83   A(15,12,52)      136.7038  136.7038  136.667  estimate D2E/DX2         !
 ! A84   A(7,13,10)        82.7804   82.7804   82.6901 estimate D2E/DX2         !
 ! A85   A(7,13,16)        80.4857   80.4857   80.8045 estimate D2E/DX2         !
 ! A86   A(7,13,26)       135.8707  135.8707  135.9085 estimate D2E/DX2         !
 ! A87   A(7,13,37)        82.0669   82.0669   81.8895 estimate D2E/DX2         !
 ! A88   A(7,13,38)       136.0929  136.0929  136.2803 estimate D2E/DX2         !
 ! A89   A(10,13,16)      134.0786  134.0786  134.0324 estimate D2E/DX2         !
 ! A90   A(10,13,26)       81.5756   81.5756   81.5432 estimate D2E/DX2         !
 ! A91   A(10,13,37)       84.1344   84.1344   84.1723 estimate D2E/DX2         !
 ! A92   A(10,13,38)      135.1705  135.1705  135.1006 estimate D2E/DX2         !
 ! A93   A(16,13,26)       81.4641   81.4641   81.2622 estimate D2E/DX2         !
 ! A94   A(16,13,37)      134.5669  134.5669  134.6724 estimate D2E/DX2         !
 ! A95   A(16,13,38)       82.677    82.677    82.5948 estimate D2E/DX2         !
 ! A96   A(26,13,37)      136.3939  136.3939  136.4814 estimate D2E/DX2         !
 ! A97   A(26,13,38)       80.2189   80.2189   80.0838 estimate D2E/DX2         !
 ! A98   A(37,13,38)       81.5709   81.5709   81.7208 estimate D2E/DX2         !
 ! A99   A(12,14,51)       79.8576   79.8576   79.826  estimate D2E/DX2         !
 ! A100  A(12,14,54)       77.2136   77.2136   77.2185 estimate D2E/DX2         !
 ! A101  A(9,15,12)        84.0784   84.0784   84.0128 estimate D2E/DX2         !
 ! A102  A(9,15,27)        83.2042   83.2042   83.1625 estimate D2E/DX2         !
 ! A103  A(12,15,27)       82.674    82.674    82.715  estimate D2E/DX2         !
 ! A104  A(6,16,13)        82.9783   82.9783   82.9154 estimate D2E/DX2         !
 ! A105  A(6,16,18)        82.635    82.635    82.3441 estimate D2E/DX2         !
 ! A106  A(13,16,18)       82.9907   82.9907   82.5864 estimate D2E/DX2         !
 ! A107  A(24,17,33)       81.4935   81.4935   81.4315 estimate D2E/DX2         !
 ! A108  A(24,17,36)       82.6605   82.6605   82.7826 estimate D2E/DX2         !
 ! A109  A(33,17,36)       90.1933   90.1933   90.2883 estimate D2E/DX2         !
 ! A110  A(7,18,16)        81.6756   81.6756   81.9333 estimate D2E/DX2         !
 ! A111  A(7,18,19)        80.4478   80.4478   80.5674 estimate D2E/DX2         !
 ! A112  A(7,18,20)       136.0945  136.0945  136.5936 estimate D2E/DX2         !
 ! A113  A(7,18,40)        84.1939   84.1939   83.489  estimate D2E/DX2         !
 ! A114  A(7,18,62)       135.7771  135.7771  134.8078 estimate D2E/DX2         !
 ! A115  A(16,18,19)      137.4779  137.4779  137.7083 estimate D2E/DX2         !
 ! A116  A(16,18,20)       87.2391   87.2391   87.3588 estimate D2E/DX2         !
 ! A117  A(16,18,40)      135.038   135.038   135.1029 estimate D2E/DX2         !
 ! A118  A(16,18,62)       85.904    85.904    81.5149 estimate D2E/DX2         !
 ! A119  A(19,18,20)       79.6776   79.6776   79.6853 estimate D2E/DX2         !
 ! A120  A(19,18,40)       80.7355   80.7355   80.3383 estimate D2E/DX2         !
 ! A121  A(19,18,62)      132.1777  132.1777  135.7772 estimate D2E/DX2         !
 ! A122  A(20,18,40)      129.9742  129.9742  129.9917 estimate D2E/DX2         !
 ! A123  A(20,18,62)       84.9812   84.9812   84.0538 estimate D2E/DX2         !
 ! A124  A(40,18,62)       75.2668   75.2668   79.3576 estimate D2E/DX2         !
 ! A125  A(18,19,42)       82.4726   82.4726   82.4598 estimate D2E/DX2         !
 ! A126  A(18,20,42)       81.6582   81.6582   81.5346 estimate D2E/DX2         !
 ! A127  A(2,21,5)         82.3471   82.3471   82.3504 estimate D2E/DX2         !
 ! A128  A(2,21,22)       124.1711  124.1711  124.0946 estimate D2E/DX2         !
 ! A129  A(2,21,23)        83.0604   83.0604   83.0699 estimate D2E/DX2         !
 ! A130  A(2,21,48)        93.3145   93.3145   93.3233 estimate D2E/DX2         !
 ! A131  A(2,21,49)       140.3472  140.3472  140.3243 estimate D2E/DX2         !
 ! A132  A(5,21,22)       108.2128  108.2128  108.1239 estimate D2E/DX2         !
 ! A133  A(5,21,23)       140.9774  140.9774  140.9506 estimate D2E/DX2         !
 ! A134  A(5,21,48)        93.7814   93.7814   93.7817 estimate D2E/DX2         !
 ! A135  A(5,21,49)        83.4401   83.4401   83.4339 estimate D2E/DX2         !
 ! A136  A(22,21,23)      109.9478  109.9478  110.0685 estimate D2E/DX2         !
 ! A137  A(22,21,48)      137.9496  137.9496  138.0544 estimate D2E/DX2         !
 ! A138  A(22,21,49)       95.4347   95.4347   95.5308 estimate D2E/DX2         !
 ! A139  A(23,21,49)       85.1701   85.1701   85.1306 estimate D2E/DX2         !
 ! A140  A(21,22,51)       95.3046   95.3046   95.3702 estimate D2E/DX2         !
 ! A141  A(10,24,17)      137.049   137.049   136.9865 estimate D2E/DX2         !
 ! A142  A(10,24,25)       81.9455   81.9455   81.9215 estimate D2E/DX2         !
 ! A143  A(10,24,26)       82.3511   82.3511   82.3648 estimate D2E/DX2         !
 ! A144  A(10,24,28)       83.7201   83.7201   83.6619 estimate D2E/DX2         !
 ! A145  A(10,24,29)      134.9534  134.9534  134.8546 estimate D2E/DX2         !
 ! A146  A(17,24,25)       75.3724   75.3724   75.2825 estimate D2E/DX2         !
 ! A147  A(17,24,26)       87.5924   87.5924   87.6202 estimate D2E/DX2         !
 ! A148  A(17,24,28)      129.139   129.139   129.2313 estimate D2E/DX2         !
 ! A149  A(17,24,29)       83.3959   83.3959   83.5457 estimate D2E/DX2         !
 ! A150  A(25,24,26)      133.7197  133.7197  133.6676 estimate D2E/DX2         !
 ! A151  A(25,24,28)       85.4013   85.4013   85.5225 estimate D2E/DX2         !
 ! A152  A(25,24,29)      137.3355  137.3355  137.4912 estimate D2E/DX2         !
 ! A153  A(26,24,28)      135.3333  135.3333  135.2428 estimate D2E/DX2         !
 ! A154  A(26,24,29)       80.5669   80.5669   80.4705 estimate D2E/DX2         !
 ! A155  A(28,24,29)       79.9519   79.9519   79.959  estimate D2E/DX2         !
 ! A156  A(24,25,33)       82.485    82.485    82.4242 estimate D2E/DX2         !
 ! A157  A(24,25,36)       82.0653   82.0653   82.1993 estimate D2E/DX2         !
 ! A158  A(33,25,36)       92.571    92.571    92.696  estimate D2E/DX2         !
 ! A159  A(9,26,13)        82.8949   82.8949   82.8194 estimate D2E/DX2         !
 ! A160  A(9,26,24)        81.6469   81.6469   81.7405 estimate D2E/DX2         !
 ! A161  A(13,26,24)       81.9783   81.9783   81.9362 estimate D2E/DX2         !
 ! A162  A(11,27,15)       80.1106   80.1106   80.1257 estimate D2E/DX2         !
 ! A163  A(11,27,28)       82.985    82.985    83.0374 estimate D2E/DX2         !
 ! A164  A(11,27,29)      132.8427  132.8427  132.8877 estimate D2E/DX2         !
 ! A165  A(11,27,30)      132.2591  132.2591  132.2706 estimate D2E/DX2         !
 ! A166  A(11,27,55)       83.4962   83.4962   83.4518 estimate D2E/DX2         !
 ! A167  A(11,27,56)      136.3509  136.3509  136.3061 estimate D2E/DX2         !
 ! A168  A(15,27,28)      134.2332  134.2332  134.2828 estimate D2E/DX2         !
 ! A169  A(15,27,29)       80.1977   80.1977   80.2254 estimate D2E/DX2         !
 ! A170  A(15,27,30)      128.7582  128.7582  128.7372 estimate D2E/DX2         !
 ! A171  A(15,27,55)      135.6515  135.6515  135.6108 estimate D2E/DX2         !
 ! A172  A(15,27,56)       83.4508   83.4508   83.4102 estimate D2E/DX2         !
 ! A173  A(28,27,29)       80.948    80.948    80.9224 estimate D2E/DX2         !
 ! A174  A(28,27,55)       83.3562   83.3562   83.3612 estimate D2E/DX2         !
 ! A175  A(28,27,56)      134.4237  134.4237  134.408  estimate D2E/DX2         !
 ! A176  A(29,27,55)      137.4005  137.4005  137.4053 estimate D2E/DX2         !
 ! A177  A(29,27,56)       82.6721   82.6721   82.6752 estimate D2E/DX2         !
 ! A178  A(30,27,55)       92.1047   92.1047   92.165  estimate D2E/DX2         !
 ! A179  A(30,27,56)       88.8744   88.8744   88.9117 estimate D2E/DX2         !
 ! A180  A(55,27,56)       80.668    80.668    80.6782 estimate D2E/DX2         !
 ! A181  A(24,28,27)       83.8993   83.8993   83.8941 estimate D2E/DX2         !
 ! A182  A(24,28,30)       81.0688   81.0688   81.0155 estimate D2E/DX2         !
 ! A183  A(24,29,27)       84.296    84.296    84.2855 estimate D2E/DX2         !
 ! A184  A(24,29,30)       82.2372   82.2372   82.1857 estimate D2E/DX2         !
 ! A185  A(27,30,31)       98.3335   98.3335   98.2586 estimate D2E/DX2         !
 ! A186  A(27,30,32)      138.102   138.102   138.1499 estimate D2E/DX2         !
 ! A187  A(27,30,33)      125.2763  125.2763  125.2264 estimate D2E/DX2         !
 ! A188  A(27,30,34)      129.2485  129.2485  129.2659 estimate D2E/DX2         !
 ! A189  A(28,30,29)       82.9682   82.9682   83.0151 estimate D2E/DX2         !
 ! A190  A(28,30,31)      107.0131  107.0131  106.9352 estimate D2E/DX2         !
 ! A191  A(28,30,32)      138.8862  138.8862  138.8325 estimate D2E/DX2         !
 ! A192  A(28,30,33)       88.6139   88.6139   88.5576 estimate D2E/DX2         !
 ! A193  A(28,30,34)       79.3547   79.3547   79.3617 estimate D2E/DX2         !
 ! A194  A(29,30,31)      129.8632  129.8632  129.7845 estimate D2E/DX2         !
 ! A195  A(29,30,32)       87.6993   87.6993   87.7374 estimate D2E/DX2         !
 ! A196  A(29,30,33)       97.4087   97.4087   97.4341 estimate D2E/DX2         !
 ! A197  A(29,30,34)      138.9625  138.9625  138.9612 estimate D2E/DX2         !
 ! A198  A(31,30,32)      109.5843  109.5843  109.6867 estimate D2E/DX2         !
 ! A199  A(31,30,33)      130.9895  130.9895  131.0702 estimate D2E/DX2         !
 ! A200  A(31,30,34)       90.8314   90.8314   90.9112 estimate D2E/DX2         !
 ! A201  A(32,30,34)       82.0074   82.0074   81.8826 estimate D2E/DX2         !
 ! A202  A(30,31,57)       94.5694   94.5694   94.6145 estimate D2E/DX2         !
 ! A203  A(17,33,25)       77.9778   77.9778   77.9551 estimate D2E/DX2         !
 ! A204  A(17,33,30)       87.2971   87.2971   87.3136 estimate D2E/DX2         !
 ! A205  A(17,33,32)       77.6591   77.6591   77.669  estimate D2E/DX2         !
 ! A206  A(17,33,34)      138.2254  138.2254  138.2507 estimate D2E/DX2         !
 ! A207  A(17,33,59)      115.9793  115.9793  115.7793 estimate D2E/DX2         !
 ! A208  A(25,33,30)       97.9727   97.9727   98.039  estimate D2E/DX2         !
 ! A209  A(25,33,32)      137.7296  137.7296  137.7156 estimate D2E/DX2         !
 ! A210  A(25,33,34)       92.8129   92.8129   92.9794 estimate D2E/DX2         !
 ! A211  A(25,33,59)      113.6533  113.6533  113.3731 estimate D2E/DX2         !
 ! A212  A(30,33,59)      143.4241  143.4241  143.709  estimate D2E/DX2         !
 ! A213  A(32,33,34)       83.1081   83.1081   82.9755 estimate D2E/DX2         !
 ! A214  A(32,33,59)      107.9718  107.9718  108.237  estimate D2E/DX2         !
 ! A215  A(34,33,59)      105.1105  105.1105  105.2946 estimate D2E/DX2         !
 ! A216  A(17,36,25)       76.8827   76.8827   76.7381 estimate D2E/DX2         !
 ! A217  A(17,36,35)      103.4728  103.4728  103.8255 estimate D2E/DX2         !
 ! A218  A(17,36,37)      140.0125  140.0125  139.8712 estimate D2E/DX2         !
 ! A219  A(17,36,38)       84.6235   84.6235   84.3759 estimate D2E/DX2         !
 ! A220  A(17,36,39)      136.596   136.596   136.5877 estimate D2E/DX2         !
 ! A221  A(25,36,35)      105.5325  105.5325  106.0648 estimate D2E/DX2         !
 ! A222  A(25,36,37)       81.5537   81.5537   81.4544 estimate D2E/DX2         !
 ! A223  A(25,36,38)      137.4601  137.4601  137.0902 estimate D2E/DX2         !
 ! A224  A(25,36,39)      133.6207  133.6207  133.7065 estimate D2E/DX2         !
 ! A225  A(35,36,37)      114.6319  114.6319  114.4626 estimate D2E/DX2         !
 ! A226  A(35,36,38)      115.9762  115.9762  115.7971 estimate D2E/DX2         !
 ! A227  A(35,36,39)       96.6238   96.6238   96.1081 estimate D2E/DX2         !
 ! A228  A(37,36,38)       89.1762   89.1762   89.3673 estimate D2E/DX2         !
 ! A229  A(13,37,36)       79.3244   79.3244   79.2929 estimate D2E/DX2         !
 ! A230  A(13,37,39)       79.5273   79.5273   79.4998 estimate D2E/DX2         !
 ! A231  A(13,38,36)       78.8933   78.8933   79.0319 estimate D2E/DX2         !
 ! A232  A(13,38,39)       79.1995   79.1995   79.2709 estimate D2E/DX2         !
 ! A233  A(36,39,40)      133.641   133.641   132.6597 estimate D2E/DX2         !
 ! A234  A(36,39,41)       98.8185   98.8185  100.8102 estimate D2E/DX2         !
 ! A235  A(36,39,62)      137.0327  137.0327  132.2986 estimate D2E/DX2         !
 ! A236  A(37,39,38)       89.0868   89.0868   88.8363 estimate D2E/DX2         !
 ! A237  A(37,39,40)       81.6848   81.6848   80.7413 estimate D2E/DX2         !
 ! A238  A(37,39,41)      116.3775  116.3775  118.5021 estimate D2E/DX2         !
 ! A239  A(37,39,62)      138.2939  138.2939  137.7469 estimate D2E/DX2         !
 ! A240  A(38,39,40)      139.6877  139.6877  139.3425 estimate D2E/DX2         !
 ! A241  A(38,39,41)      116.9544  116.9544  117.4662 estimate D2E/DX2         !
 ! A242  A(38,39,62)       85.0572   85.0572   80.4188 estimate D2E/DX2         !
 ! A243  A(40,39,41)      102.1509  102.1509  101.8564 estimate D2E/DX2         !
 ! A244  A(40,39,62)       76.7003   76.7003   81.4497 estimate D2E/DX2         !
 ! A245  A(41,39,62)      102.9009  102.9009  102.5245 estimate D2E/DX2         !
 ! A246  A(18,40,39)       81.3967   81.3967   81.2405 estimate D2E/DX2         !
 ! A247  A(18,40,63)       95.5388   95.5388   95.5473 estimate D2E/DX2         !
 ! A248  A(39,40,63)       98.0546   98.0546   98.8805 estimate D2E/DX2         !
 ! A249  A(19,42,20)       81.8501   81.8501   81.4783 estimate D2E/DX2         !
 ! A250  A(19,42,43)      138.3397  138.3397  138.1984 estimate D2E/DX2         !
 ! A251  A(19,42,44)       93.8773   93.8773   93.8475 estimate D2E/DX2         !
 ! A252  A(19,42,61)      105.5322  105.5322  105.5101 estimate D2E/DX2         !
 ! A253  A(20,42,43)       76.9234   76.9234   76.9044 estimate D2E/DX2         !
 ! A254  A(20,42,44)      137.0052  137.0052  136.9092 estimate D2E/DX2         !
 ! A255  A(20,42,61)      106.9765  106.9765  106.8335 estimate D2E/DX2         !
 ! A256  A(43,42,44)       78.6636   78.6636   78.9069 estimate D2E/DX2         !
 ! A257  A(43,42,61)      114.7667  114.7667  114.7998 estimate D2E/DX2         !
 ! A258  A(44,42,61)      115.2879  115.2879  115.595  estimate D2E/DX2         !
 ! A259  A(6,43,42)        81.2446   81.2446   81.2397 estimate D2E/DX2         !
 ! A260  A(6,43,45)        83.1101   83.1101   82.9312 estimate D2E/DX2         !
 ! A261  A(42,43,45)       89.0318   89.0318   88.8692 estimate D2E/DX2         !
 ! A262  A(6,44,42)        82.5864   82.5864   82.5612 estimate D2E/DX2         !
 ! A263  A(6,44,45)        82.6683   82.6683   82.5372 estimate D2E/DX2         !
 ! A264  A(42,44,45)       91.3654   91.3654   91.1857 estimate D2E/DX2         !
 ! A265  A(3,45,43)        84.2197   84.2197   84.2387 estimate D2E/DX2         !
 ! A266  A(3,45,44)       136.6661  136.6661  136.7293 estimate D2E/DX2         !
 ! A267  A(3,45,46)        88.2164   88.2164   88.1486 estimate D2E/DX2         !
 ! A268  A(3,45,47)       114.9565  114.9565  114.9816 estimate D2E/DX2         !
 ! A269  A(43,45,44)       77.2122   77.2122   77.3519 estimate D2E/DX2         !
 ! A270  A(43,45,46)      138.5698  138.5698  138.6593 estimate D2E/DX2         !
 ! A271  A(43,45,47)      105.9062  105.9062  105.8961 estimate D2E/DX2         !
 ! A272  A(43,45,48)      136.2419  136.2419  136.2094 estimate D2E/DX2         !
 ! A273  A(44,45,46)       80.9366   80.9366   80.9306 estimate D2E/DX2         !
 ! A274  A(44,45,47)      107.7272  107.7272  107.6645 estimate D2E/DX2         !
 ! A275  A(44,45,48)      132.8584  132.8584  132.7983 estimate D2E/DX2         !
 ! A276  A(46,45,47)      114.152   114.152   114.0896 estimate D2E/DX2         !
 ! A277  A(47,45,48)       94.4337   94.4337   94.4406 estimate D2E/DX2         !
 ! A278  A(1,46,45)        80.1546   80.1546   80.1978 estimate D2E/DX2         !
 ! A279  A(1,46,48)        80.5081   80.5081   80.4758 estimate D2E/DX2         !
 ! A280  A(3,48,21)        91.2905   91.2905   91.3001 estimate D2E/DX2         !
 ! A281  A(3,48,23)        81.1543   81.1543   81.1562 estimate D2E/DX2         !
 ! A282  A(3,48,46)        86.0753   86.0753   86.0823 estimate D2E/DX2         !
 ! A283  A(3,48,49)       136.5758  136.5758  136.5582 estimate D2E/DX2         !
 ! A284  A(3,48,50)       119.6208  119.6208  119.609  estimate D2E/DX2         !
 ! A285  A(21,48,45)      120.813   120.813   120.8225 estimate D2E/DX2         !
 ! A286  A(21,48,46)       90.3747   90.3747   90.3987 estimate D2E/DX2         !
 ! A287  A(21,48,50)      136.5356  136.5356  136.535  estimate D2E/DX2         !
 ! A288  A(23,48,45)      131.6627  131.6627  131.6598 estimate D2E/DX2         !
 ! A289  A(23,48,46)      135.7588  135.7588  135.7513 estimate D2E/DX2         !
 ! A290  A(23,48,49)       80.7495   80.7495   80.7098 estimate D2E/DX2         !
 ! A291  A(23,48,50)      103.675   103.675   103.702  estimate D2E/DX2         !
 ! A292  A(45,48,49)      130.6751  130.6751  130.6855 estimate D2E/DX2         !
 ! A293  A(45,48,50)      102.6416  102.6416  102.6328 estimate D2E/DX2         !
 ! A294  A(46,48,49)       80.1096   80.1096   80.125  estimate D2E/DX2         !
 ! A295  A(46,48,50)      119.3332  119.3332  119.3134 estimate D2E/DX2         !
 ! A296  A(49,48,50)      102.9174  102.9174  102.944  estimate D2E/DX2         !
 ! A297  A(14,51,22)      123.8364  123.8364  123.8379 estimate D2E/DX2         !
 ! A298  A(14,51,52)       91.7577   91.7577   91.7569 estimate D2E/DX2         !
 ! A299  A(14,51,60)      110.9428  110.9428  110.9211 estimate D2E/DX2         !
 ! A300  A(22,51,52)      112.4477  112.4477  112.4639 estimate D2E/DX2         !
 ! A301  A(22,51,54)      159.8384  159.8384  159.8345 estimate D2E/DX2         !
 ! A302  A(22,51,60)      105.3752  105.3752  105.3987 estimate D2E/DX2         !
 ! A303  A(52,51,60)      112.1245  112.1245  112.0976 estimate D2E/DX2         !
 ! A304  A(54,51,60)       93.6576   93.6576   93.6415 estimate D2E/DX2         !
 ! A305  A(12,52,51)       79.3547   79.3547   79.3266 estimate D2E/DX2         !
 ! A306  A(12,52,54)       76.0336   76.0336   76.0404 estimate D2E/DX2         !
 ! A307  A(14,54,52)       84.3544   84.3544   84.3391 estimate D2E/DX2         !
 ! A308  A(14,54,53)      105.1444  105.1444  105.1496 estimate D2E/DX2         !
 ! A309  A(14,54,55)      146.1269  146.1269  146.1218 estimate D2E/DX2         !
 ! A310  A(14,54,56)       85.7401   85.7401   85.7519 estimate D2E/DX2         !
 ! A311  A(14,54,57)      135.5313  135.5313  135.5272 estimate D2E/DX2         !
 ! A312  A(51,54,53)       86.2361   86.2361   86.2638 estimate D2E/DX2         !
 ! A313  A(51,54,55)      130.4082  130.4082  130.4055 estimate D2E/DX2         !
 ! A314  A(51,54,56)      133.7102  133.7102  133.7051 estimate D2E/DX2         !
 ! A315  L(51,54,57,53,-1)  176.1107  176.1107  176.1644 estimate D2E/DX2       !
 ! A316  L(51,54,57,53,-2)  177.8436  177.8436  177.8446 estimate D2E/DX2       !
 ! A317  A(52,54,53)      105.2714  105.2714  105.2728 estimate D2E/DX2         !
 ! A318  A(52,54,55)       83.2601   83.2601   83.2725 estimate D2E/DX2         !
 ! A319  A(52,54,56)      145.4712  145.4712  145.4704 estimate D2E/DX2         !
 ! A320  A(52,54,57)      132.3057  132.3057  132.3028 estimate D2E/DX2         !
 ! A321  A(53,54,55)      108.5064  108.5064  108.5061 estimate D2E/DX2         !
 ! A322  A(53,54,56)      109.2411  109.2411  109.2406 estimate D2E/DX2         !
 ! A323  A(53,54,57)       89.8746   89.8746   89.9006 estimate D2E/DX2         !
 ! A324  A(55,54,56)       86.8611   86.8611   86.8489 estimate D2E/DX2         !
 ! A325  A(27,55,54)       76.0628   76.0628   76.0712 estimate D2E/DX2         !
 ! A326  A(27,55,57)       79.2191   79.2191   79.1896 estimate D2E/DX2         !
 ! A327  A(27,56,54)       77.4969   77.4969   77.4997 estimate D2E/DX2         !
 ! A328  A(27,56,57)       80.0908   80.0908   80.0536 estimate D2E/DX2         !
 ! A329  A(31,57,54)      157.256   157.256   157.2791 estimate D2E/DX2         !
 ! A330  A(31,57,55)      108.1979  108.1979  108.2453 estimate D2E/DX2         !
 ! A331  A(31,57,56)      123.5817  123.5817  123.5845 estimate D2E/DX2         !
 ! A332  A(31,57,58)      105.3014  105.3014  105.3274 estimate D2E/DX2         !
 ! A333  A(54,57,58)       95.4102   95.4102   95.3735 estimate D2E/DX2         !
 ! A334  A(55,57,56)       92.6848   92.6848   92.6827 estimate D2E/DX2         !
 ! A335  A(55,57,58)      113.8064  113.8064  113.7707 estimate D2E/DX2         !
 ! A336  A(56,57,58)      112.9679  112.9679  112.9252 estimate D2E/DX2         !
 ! A337  A(18,62,39)       82.6676   82.6676   81.1997 estimate D2E/DX2         !
 ! A338  A(18,62,64)      131.6719  104.4816   95.637  estimate D2E/DX2         !
 ! A339  A(39,62,64)      132.5749  107.3419   98.6832 estimate D2E/DX2         !
 ! D1    D(3,1,2,12)      178.3179  178.3179  178.3946 estimate D2E/DX2         !
 ! D2    D(3,1,2,21)       94.364    94.364    94.3878 estimate D2E/DX2         !
 ! D3    D(4,1,2,12)      -28.3214  -28.3214  -28.2677 estimate D2E/DX2         !
 ! D4    D(4,1,2,21)     -112.2753 -112.2753 -112.2745 estimate D2E/DX2         !
 ! D5    D(5,1,2,12)       40.8      40.8      40.8087 estimate D2E/DX2         !
 ! D6    D(5,1,2,21)      -43.1539  -43.1539  -43.1981 estimate D2E/DX2         !
 ! D7    D(8,1,2,12)      -99.3881  -99.3881  -99.3466 estimate D2E/DX2         !
 ! D8    D(8,1,2,21)      176.658   176.658   176.6466 estimate D2E/DX2         !
 ! D9    D(46,1,2,12)     108.6439  108.6439  108.7172 estimate D2E/DX2         !
 ! D10   D(46,1,2,21)      24.6901   24.6901   24.7104 estimate D2E/DX2         !
 ! D11   D(2,1,3,45)     -174.9091 -174.9091 -175.0034 estimate D2E/DX2         !
 ! D12   D(2,1,3,48)      -96.1189  -96.1189  -96.1568 estimate D2E/DX2         !
 ! D13   D(4,1,3,45)       31.5137   31.5137   31.4549 estimate D2E/DX2         !
 ! D14   D(4,1,3,48)      110.3039  110.3039  110.3016 estimate D2E/DX2         !
 ! D15   D(5,1,3,45)     -107.4675 -107.4675 -107.546  estimate D2E/DX2         !
 ! D16   D(5,1,3,48)      -28.6773  -28.6773  -28.6993 estimate D2E/DX2         !
 ! D17   D(8,1,3,45)      101.3024  101.3024  101.2747 estimate D2E/DX2         !
 ! D18   D(8,1,3,48)     -179.9074 -179.9074 -179.8787 estimate D2E/DX2         !
 ! D19   D(46,1,3,45)     -38.7781  -38.7781  -38.7921 estimate D2E/DX2         !
 ! D20   D(46,1,3,48)      40.0121   40.0121   40.0546 estimate D2E/DX2         !
 ! D21   D(2,1,4,6)      -112.3492 -112.3492 -112.3661 estimate D2E/DX2         !
 ! D22   D(2,1,4,9)       -28.5619  -28.5619  -28.5677 estimate D2E/DX2         !
 ! D23   D(3,1,4,6)        28.2698   28.2698   28.2366 estimate D2E/DX2         !
 ! D24   D(3,1,4,9)       112.057   112.057   112.0351 estimate D2E/DX2         !
 ! D25   D(5,1,4,6)       179.8758  179.8758  179.8979 estimate D2E/DX2         !
 ! D26   D(5,1,4,9)       -96.3369  -96.3369  -96.3036 estimate D2E/DX2         !
 ! D27   D(8,1,4,6)       -41.15    -41.15    -41.1891 estimate D2E/DX2         !
 ! D28   D(8,1,4,9)        42.6372   42.6372   42.6094 estimate D2E/DX2         !
 ! D29   D(46,1,4,6)       97.77     97.77     97.6911 estimate D2E/DX2         !
 ! D30   D(46,1,4,9)     -178.4428 -178.4428 -178.5104 estimate D2E/DX2         !
 ! D31   D(2,1,5,12)      -40.9151  -40.9151  -40.9234 estimate D2E/DX2         !
 ! D32   D(2,1,5,21)       43.0107   43.0107   43.0517 estimate D2E/DX2         !
 ! D33   D(3,1,5,12)     -109.2633 -109.2633 -109.325  estimate D2E/DX2         !
 ! D34   D(3,1,5,21)      -25.3374  -25.3374  -25.35   estimate D2E/DX2         !
 ! D35   D(4,1,5,12)       98.2838   98.2838   98.2321 estimate D2E/DX2         !
 ! D36   D(4,1,5,21)     -177.7903 -177.7903 -177.7929 estimate D2E/DX2         !
 ! D37   D(8,1,5,12)       26.8293   26.8293   26.7445 estimate D2E/DX2         !
 ! D38   D(8,1,5,21)      110.7552  110.7552  110.7195 estimate D2E/DX2         !
 ! D39   D(46,1,5,12)    -177.784  -177.784  -177.8639 estimate D2E/DX2         !
 ! D40   D(46,1,5,21)     -93.8581  -93.8581  -93.8889 estimate D2E/DX2         !
 ! D41   D(2,1,8,6)       179.6725  179.6725  179.6492 estimate D2E/DX2         !
 ! D42   D(2,1,8,9)        96.0231   96.0231   95.9929 estimate D2E/DX2         !
 ! D43   D(3,1,8,6)       -97.3009  -97.3009  -97.2289 estimate D2E/DX2         !
 ! D44   D(3,1,8,9)       179.0497  179.0497  179.1147 estimate D2E/DX2         !
 ! D45   D(4,1,8,6)        41.195    41.195    41.2276 estimate D2E/DX2         !
 ! D46   D(4,1,8,9)       -42.4543  -42.4543  -42.4287 estimate D2E/DX2         !
 ! D47   D(5,1,8,6)       113.0134  113.0134  113.0531 estimate D2E/DX2         !
 ! D48   D(5,1,8,9)        29.3641   29.3641   29.3968 estimate D2E/DX2         !
 ! D49   D(46,1,8,6)      -30.2273  -30.2273  -30.2126 estimate D2E/DX2         !
 ! D50   D(46,1,8,9)     -113.8766 -113.8766 -113.8689 estimate D2E/DX2         !
 ! D51   D(2,1,46,45)     108.8763  108.8763  108.9369 estimate D2E/DX2         !
 ! D52   D(2,1,46,48)      30.0695   30.0695   30.0708 estimate D2E/DX2         !
 ! D53   D(3,1,46,45)      38.7581   38.7581   38.7727 estimate D2E/DX2         !
 ! D54   D(3,1,46,48)     -40.0487  -40.0487  -40.0933 estimate D2E/DX2         !
 ! D55   D(4,1,46,45)     -99.6506  -99.6506  -99.6146 estimate D2E/DX2         !
 ! D56   D(4,1,46,48)    -178.4575 -178.4575 -178.4806 estimate D2E/DX2         !
 ! D57   D(5,1,46,45)     176.0639  176.0639  176.1458 estimate D2E/DX2         !
 ! D58   D(5,1,46,48)      97.257    97.257    97.2797 estimate D2E/DX2         !
 ! D59   D(8,1,46,45)     -28.4775  -28.4775  -28.4028 estimate D2E/DX2         !
 ! D60   D(8,1,46,48)    -107.2844 -107.2844 -107.2689 estimate D2E/DX2         !
 ! D61   D(1,2,12,5)      -41.427   -41.427   -41.4283 estimate D2E/DX2         !
 ! D62   D(1,2,12,11)      28.8059   28.8059   28.8094 estimate D2E/DX2         !
 ! D63   D(1,2,12,14)    -178.217  -178.217  -178.2237 estimate D2E/DX2         !
 ! D64   D(1,2,12,15)      95.7694   95.7694   95.8095 estimate D2E/DX2         !
 ! D65   D(1,2,12,52)    -111.2524 -111.2524 -111.2357 estimate D2E/DX2         !
 ! D66   D(21,2,12,5)      40.0015   40.0015   39.9558 estimate D2E/DX2         !
 ! D67   D(21,2,12,11)    110.2344  110.2344  110.1935 estimate D2E/DX2         !
 ! D68   D(21,2,12,14)    -96.7884  -96.7884  -96.8396 estimate D2E/DX2         !
 ! D69   D(21,2,12,15)    177.1979  177.1979  177.1936 estimate D2E/DX2         !
 ! D70   D(21,2,12,52)    -29.8239  -29.8239  -29.8516 estimate D2E/DX2         !
 ! D71   D(1,2,21,5)       44.2503   44.2503   44.3024 estimate D2E/DX2         !
 ! D72   D(1,2,21,22)     151.1047  151.1047  151.0464 estimate D2E/DX2         !
 ! D73   D(1,2,21,23)     -99.4585  -99.4585  -99.3724 estimate D2E/DX2         !
 ! D74   D(1,2,21,48)     -49.1248  -49.1248  -49.0721 estimate D2E/DX2         !
 ! D75   D(1,2,21,49)     -25.705   -25.705   -25.6603 estimate D2E/DX2         !
 ! D76   D(12,2,21,5)     -40.3637  -40.3637  -40.33   estimate D2E/DX2         !
 ! D77   D(12,2,21,22)     66.4907   66.4907   66.414  estimate D2E/DX2         !
 ! D78   D(12,2,21,23)    175.9274  175.9274  175.9952 estimate D2E/DX2         !
 ! D79   D(12,2,21,48)   -133.7389 -133.7389 -133.7044 estimate D2E/DX2         !
 ! D80   D(12,2,21,49)   -110.319  -110.319  -110.2927 estimate D2E/DX2         !
 ! D81   D(1,3,45,43)     -97.7274  -97.7274  -97.8335 estimate D2E/DX2         !
 ! D82   D(1,3,45,44)     -33.2889  -33.2889  -33.1895 estimate D2E/DX2         !
 ! D83   D(1,3,45,46)      41.4829   41.4829   41.4778 estimate D2E/DX2         !
 ! D84   D(1,3,45,47)     157.397   157.397   157.2928 estimate D2E/DX2         !
 ! D85   D(1,3,48,21)      48.3381   48.3381   48.3036 estimate D2E/DX2         !
 ! D86   D(1,3,48,23)      95.5625   95.5625   95.4939 estimate D2E/DX2         !
 ! D87   D(1,3,48,46)     -41.949   -41.949   -42.0072 estimate D2E/DX2         !
 ! D88   D(1,3,48,49)      29.2095   29.2095   29.1903 estimate D2E/DX2         !
 ! D89   D(1,3,48,50)    -163.6746 -163.6746 -163.7104 estimate D2E/DX2         !
 ! D90   D(1,4,6,7)       178.276   178.276   178.2681 estimate D2E/DX2         !
 ! D91   D(1,4,6,8)        40.8507   40.8507   40.8592 estimate D2E/DX2         !
 ! D92   D(1,4,6,16)      107.9924  107.9924  107.6006 estimate D2E/DX2         !
 ! D93   D(1,4,6,43)      -36.2801  -36.2801  -36.2739 estimate D2E/DX2         !
 ! D94   D(1,4,6,44)      -95.4684  -95.4684  -95.5487 estimate D2E/DX2         !
 ! D95   D(9,4,6,7)        96.3898   96.3898   96.3548 estimate D2E/DX2         !
 ! D96   D(9,4,6,8)       -41.0355  -41.0355  -41.0541 estimate D2E/DX2         !
 ! D97   D(9,4,6,16)       26.1062   26.1062   25.6873 estimate D2E/DX2         !
 ! D98   D(9,4,6,43)     -118.1663 -118.1663 -118.1872 estimate D2E/DX2         !
 ! D99   D(9,4,6,44)     -177.3546 -177.3546 -177.4621 estimate D2E/DX2         !
 ! D100  D(1,4,9,8)       -41.8043  -41.8043  -41.7557 estimate D2E/DX2         !
 ! D101  D(1,4,9,10)     -178.6917 -178.6917 -178.6551 estimate D2E/DX2         !
 ! D102  D(1,4,9,11)       95.9916   95.9916   96.0829 estimate D2E/DX2         !
 ! D103  D(1,4,9,15)       28.8815   28.8815   28.8925 estimate D2E/DX2         !
 ! D104  D(1,4,9,26)     -110.1211 -110.1211 -110.0667 estimate D2E/DX2         !
 ! D105  D(6,4,9,8)        40.5406   40.5406   40.568  estimate D2E/DX2         !
 ! D106  D(6,4,9,10)      -96.3467  -96.3467  -96.3313 estimate D2E/DX2         !
 ! D107  D(6,4,9,11)      178.3366  178.3366  178.4067 estimate D2E/DX2         !
 ! D108  D(6,4,9,15)      111.2265  111.2265  111.2163 estimate D2E/DX2         !
 ! D109  D(6,4,9,26)      -27.7761  -27.7761  -27.7429 estimate D2E/DX2         !
 ! D110  D(1,5,12,2)       41.1647   41.1647   41.1672 estimate D2E/DX2         !
 ! D111  D(1,5,12,11)     -94.9638  -94.9638  -94.9924 estimate D2E/DX2         !
 ! D112  D(1,5,12,14)     111.1471  111.1471  111.1326 estimate D2E/DX2         !
 ! D113  D(1,5,12,15)     -26.4393  -26.4393  -26.4051 estimate D2E/DX2         !
 ! D114  D(1,5,12,52)    -179.8175 -179.8175 -179.793  estimate D2E/DX2         !
 ! D115  D(21,5,12,2)     -39.8183  -39.8183  -39.77   estimate D2E/DX2         !
 ! D116  D(21,5,12,11)   -175.9468 -175.9468 -175.9296 estimate D2E/DX2         !
 ! D117  D(21,5,12,14)     30.1641   30.1641   30.1954 estimate D2E/DX2         !
 ! D118  D(21,5,12,15)   -107.4223 -107.4223 -107.3423 estimate D2E/DX2         !
 ! D119  D(21,5,12,52)     99.1995   99.1995   99.2698 estimate D2E/DX2         !
 ! D120  D(1,5,21,2)      -44.0155  -44.0155  -44.0692 estimate D2E/DX2         !
 ! D121  D(1,5,21,22)    -167.5466 -167.5466 -167.5158 estimate D2E/DX2         !
 ! D122  D(1,5,21,23)      24.9201   24.9201   24.9037 estimate D2E/DX2         !
 ! D123  D(1,5,21,48)      48.8266   48.8266   48.7819 estimate D2E/DX2         !
 ! D124  D(1,5,21,49)      98.8686   98.8686   98.7914 estimate D2E/DX2         !
 ! D125  D(12,5,21,2)      40.4691   40.4691   40.4353 estimate D2E/DX2         !
 ! D126  D(12,5,21,22)    -83.0621  -83.0621  -83.0114 estimate D2E/DX2         !
 ! D127  D(12,5,21,23)    109.4047  109.4047  109.4082 estimate D2E/DX2         !
 ! D128  D(12,5,21,48)    133.3111  133.3111  133.2864 estimate D2E/DX2         !
 ! D129  D(12,5,21,49)   -176.6468 -176.6468 -176.7042 estimate D2E/DX2         !
 ! D130  D(4,6,7,13)      -95.7798  -95.7798  -95.9348 estimate D2E/DX2         !
 ! D131  D(4,6,7,18)     -178.7414 -178.7414 -178.6075 estimate D2E/DX2         !
 ! D132  D(8,6,7,13)      -23.4191  -23.4191  -23.7935 estimate D2E/DX2         !
 ! D133  D(8,6,7,18)     -106.3807 -106.3807 -106.4662 estimate D2E/DX2         !
 ! D134  D(16,6,7,13)      41.6924   41.6924   41.391  estimate D2E/DX2         !
 ! D135  D(16,6,7,18)     -41.2692  -41.2692  -41.2816 estimate D2E/DX2         !
 ! D136  D(43,6,7,13)     115.3567  115.3567  115.1413 estimate D2E/DX2         !
 ! D137  D(43,6,7,18)      32.395    32.395    32.4686 estimate D2E/DX2         !
 ! D138  D(44,6,7,13)    -177.8013 -177.8013 -178.0246 estimate D2E/DX2         !
 ! D139  D(44,6,7,18)      99.2371   99.2371   99.3028 estimate D2E/DX2         !
 ! D140  D(4,6,8,1)       -41.245   -41.245   -41.257  estimate D2E/DX2         !
 ! D141  D(4,6,8,9)        40.9082   40.9082   40.9296 estimate D2E/DX2         !
 ! D142  D(7,6,8,1)      -114.3872 -114.3872 -114.1209 estimate D2E/DX2         !
 ! D143  D(7,6,8,9)       -32.2341  -32.2341  -31.9343 estimate D2E/DX2         !
 ! D144  D(16,6,8,1)     -179.7261 -179.7261 -179.7723 estimate D2E/DX2         !
 ! D145  D(16,6,8,9)      -97.5729  -97.5729  -97.5857 estimate D2E/DX2         !
 ! D146  D(43,6,8,1)       95.9006   95.9006   96.0226 estimate D2E/DX2         !
 ! D147  D(43,6,8,9)      178.0537  178.0537  178.2092 estimate D2E/DX2         !
 ! D148  D(44,6,8,1)       29.1537   29.1537   29.1308 estimate D2E/DX2         !
 ! D149  D(44,6,8,9)      111.3068  111.3068  111.3175 estimate D2E/DX2         !
 ! D150  D(4,6,16,13)      29.9345   29.9345   30.4712 estimate D2E/DX2         !
 ! D151  D(4,6,16,18)     113.7313  113.7313  113.8972 estimate D2E/DX2         !
 ! D152  D(7,6,16,13)     -41.7289  -41.7289  -41.3623 estimate D2E/DX2         !
 ! D153  D(7,6,16,18)      42.0679   42.0679   42.0636 estimate D2E/DX2         !
 ! D154  D(8,6,16,13)      97.8946   97.8946   98.12   estimate D2E/DX2         !
 ! D155  D(8,6,16,18)    -178.3086 -178.3086 -178.454  estimate D2E/DX2         !
 ! D156  D(43,6,16,13)   -174.2126 -174.2126 -173.8674 estimate D2E/DX2         !
 ! D157  D(43,6,16,18)    -90.4158  -90.4158  -90.4414 estimate D2E/DX2         !
 ! D158  D(44,6,16,13)   -113.8256 -113.8256 -113.6832 estimate D2E/DX2         !
 ! D159  D(44,6,16,18)    -30.0288  -30.0288  -30.2572 estimate D2E/DX2         !
 ! D160  D(4,6,43,42)    -105.8184 -105.8184 -105.7355 estimate D2E/DX2         !
 ! D161  D(4,6,43,45)     -15.7389  -15.7389  -15.7935 estimate D2E/DX2         !
 ! D162  D(7,6,43,42)      26.5981   26.5981   26.6567 estimate D2E/DX2         !
 ! D163  D(7,6,43,45)     116.6777  116.6777  116.5988 estimate D2E/DX2         !
 ! D164  D(8,6,43,42)     178.9493  178.9493  179.0613 estimate D2E/DX2         !
 ! D165  D(8,6,43,45)     -90.9712  -90.9712  -90.9967 estimate D2E/DX2         !
 ! D166  D(16,6,43,42)     98.7588   98.7588   99.1412 estimate D2E/DX2         !
 ! D167  D(16,6,43,45)   -171.1617 -171.1617 -170.9168 estimate D2E/DX2         !
 ! D168  D(44,6,43,42)    -44.5171  -44.5171  -44.3658 estimate D2E/DX2         !
 ! D169  D(44,6,43,45)     45.5624   45.5624   45.5762 estimate D2E/DX2         !
 ! D170  D(4,6,44,42)    -171.527  -171.527  -171.6433 estimate D2E/DX2         !
 ! D171  D(4,6,44,45)      96.125    96.125    96.1703 estimate D2E/DX2         !
 ! D172  D(7,6,44,42)     -86.8862  -86.8862  -87.181  estimate D2E/DX2         !
 ! D173  D(7,6,44,45)    -179.2342 -179.2342 -179.3674 estimate D2E/DX2         !
 ! D174  D(8,6,44,42)     117.8948  117.8948  117.8226 estimate D2E/DX2         !
 ! D175  D(8,6,44,45)      25.5468   25.5468   25.6362 estimate D2E/DX2         !
 ! D176  D(16,6,44,42)    -16.5656  -16.5656  -16.4656 estimate D2E/DX2         !
 ! D177  D(16,6,44,45)   -108.9136 -108.9136 -108.652  estimate D2E/DX2         !
 ! D178  D(43,6,44,42)     46.618    46.618    46.4144 estimate D2E/DX2         !
 ! D179  D(43,6,44,45)    -45.73    -45.73    -45.772  estimate D2E/DX2         !
 ! D180  D(6,7,13,10)      95.4934   95.4934   95.7308 estimate D2E/DX2         !
 ! D181  D(6,7,13,16)     -41.579   -41.579   -41.21   estimate D2E/DX2         !
 ! D182  D(6,7,13,26)      25.5336   25.5336   25.9432 estimate D2E/DX2         !
 ! D183  D(6,7,13,37)    -179.4605 -179.4605 -179.1522 estimate D2E/DX2         !
 ! D184  D(6,7,13,38)    -110.4494 -110.4494 -110.2205 estimate D2E/DX2         !
 ! D185  D(18,7,13,10)    177.8499  177.8499  177.8131 estimate D2E/DX2         !
 ! D186  D(18,7,13,16)     40.7775   40.7775   40.8723 estimate D2E/DX2         !
 ! D187  D(18,7,13,26)    107.8901  107.8901  108.0254 estimate D2E/DX2         !
 ! D188  D(18,7,13,37)    -97.104   -97.104   -97.07   estimate D2E/DX2         !
 ! D189  D(18,7,13,38)    -28.0928  -28.0928  -28.1382 estimate D2E/DX2         !
 ! D190  D(6,7,18,16)      42.0486   42.0486   41.9997 estimate D2E/DX2         !
 ! D191  D(6,7,18,19)     -99.2083  -99.2083  -99.344  estimate D2E/DX2         !
 ! D192  D(6,7,18,20)     -35.112   -35.112   -35.434  estimate D2E/DX2         !
 ! D193  D(6,7,18,40)     179.244   179.244   179.4148 estimate D2E/DX2         !
 ! D194  D(6,7,18,62)     117.3433  117.3433  111.4614 estimate D2E/DX2         !
 ! D195  D(13,7,18,16)    -41.6566  -41.6566  -41.7634 estimate D2E/DX2         !
 ! D196  D(13,7,18,19)    177.0865  177.0865  176.8929 estimate D2E/DX2         !
 ! D197  D(13,7,18,20)   -118.8172 -118.8172 -119.1971 estimate D2E/DX2         !
 ! D198  D(13,7,18,40)     95.5388   95.5388   95.6517 estimate D2E/DX2         !
 ! D199  D(13,7,18,62)     33.6381   33.6381   27.6983 estimate D2E/DX2         !
 ! D200  D(1,8,9,4)        42.2438   42.2438   42.197  estimate D2E/DX2         !
 ! D201  D(1,8,9,10)      112.0275  112.0275  111.9952 estimate D2E/DX2         !
 ! D202  D(1,8,9,11)      -28.8641  -28.8641  -28.8946 estimate D2E/DX2         !
 ! D203  D(1,8,9,15)      -95.5238  -95.5238  -95.6191 estimate D2E/DX2         !
 ! D204  D(1,8,9,26)     -179.5482 -179.5482 -179.5799 estimate D2E/DX2         !
 ! D205  D(6,8,9,4)       -40.6597  -40.6597  -40.6809 estimate D2E/DX2         !
 ! D206  D(6,8,9,10)       29.1239   29.1239   29.1173 estimate D2E/DX2         !
 ! D207  D(6,8,9,11)     -111.7677 -111.7677 -111.7724 estimate D2E/DX2         !
 ! D208  D(6,8,9,15)     -178.4274 -178.4274 -178.4969 estimate D2E/DX2         !
 ! D209  D(6,8,9,26)       97.5482   97.5482   97.5423 estimate D2E/DX2         !
 ! D210  D(4,9,10,13)      97.2576   97.2576   97.1549 estimate D2E/DX2         !
 ! D211  D(4,9,10,24)     179.6102  179.6102  179.4973 estimate D2E/DX2         !
 ! D212  D(8,9,10,13)      27.8641   27.8641   27.7687 estimate D2E/DX2         !
 ! D213  D(8,9,10,24)     110.2167  110.2167  110.1111 estimate D2E/DX2         !
 ! D214  D(11,9,10,13)   -178.6847 -178.6847 -178.764  estimate D2E/DX2         !
 ! D215  D(11,9,10,24)    -96.3321  -96.3321  -96.4216 estimate D2E/DX2         !
 ! D216  D(15,9,10,13)   -110.8158 -110.8158 -110.8461 estimate D2E/DX2         !
 ! D217  D(15,9,10,24)    -28.4632  -28.4632  -28.5037 estimate D2E/DX2         !
 ! D218  D(26,9,10,13)    -40.7822  -40.7822  -40.8883 estimate D2E/DX2         !
 ! D219  D(26,9,10,24)     41.5704   41.5704   41.4541 estimate D2E/DX2         !
 ! D220  D(4,9,11,12)     -97.3445  -97.3445  -97.3229 estimate D2E/DX2         !
 ! D221  D(4,9,11,27)     179.4246  179.4246  179.3944 estimate D2E/DX2         !
 ! D222  D(8,9,11,12)     -27.1383  -27.1383  -27.1486 estimate D2E/DX2         !
 ! D223  D(8,9,11,27)    -110.3692 -110.3692 -110.4313 estimate D2E/DX2         !
 ! D224  D(10,9,11,12)   -179.9383 -179.9383 -179.952  estimate D2E/DX2         !
 ! D225  D(10,9,11,27)     96.8308   96.8308   96.7653 estimate D2E/DX2         !
 ! D226  D(15,9,11,12)     41.0805   41.0805   41.1163 estimate D2E/DX2         !
 ! D227  D(15,9,11,27)    -42.1504  -42.1504  -42.1664 estimate D2E/DX2         !
 ! D228  D(26,9,11,12)    109.1243  109.1243  109.1555 estimate D2E/DX2         !
 ! D229  D(26,9,11,27)     25.8934   25.8934   25.8728 estimate D2E/DX2         !
 ! D230  D(4,9,15,12)      27.6108   27.6108   27.6417 estimate D2E/DX2         !
 ! D231  D(4,9,15,27)     110.9065  110.9065  110.9897 estimate D2E/DX2         !
 ! D232  D(8,9,15,12)      97.5215   97.5215   97.5046 estimate D2E/DX2         !
 ! D233  D(8,9,15,27)    -179.1828 -179.1828 -179.1474 estimate D2E/DX2         !
 ! D234  D(10,9,15,12)   -111.1484 -111.1484 -111.1979 estimate D2E/DX2         !
 ! D235  D(10,9,15,27)    -27.8527  -27.8527  -27.8499 estimate D2E/DX2         !
 ! D236  D(11,9,15,12)    -41.1954  -41.1954  -41.2313 estimate D2E/DX2         !
 ! D237  D(11,9,15,27)     42.1003   42.1003   42.1168 estimate D2E/DX2         !
 ! D238  D(26,9,15,12)    179.6663  179.6663  179.6732 estimate D2E/DX2         !
 ! D239  D(26,9,15,27)    -97.0381  -97.0381  -96.9787 estimate D2E/DX2         !
 ! D240  D(4,9,26,13)     -27.8598  -27.8598  -27.8111 estimate D2E/DX2         !
 ! D241  D(4,9,26,24)    -110.7463 -110.7463 -110.6547 estimate D2E/DX2         !
 ! D242  D(8,9,26,13)     -96.0379  -96.0379  -95.9676 estimate D2E/DX2         !
 ! D243  D(8,9,26,24)    -178.9245 -178.9245 -178.8112 estimate D2E/DX2         !
 ! D244  D(10,9,26,13)     41.1677   41.1677   41.2493 estimate D2E/DX2         !
 ! D245  D(10,9,26,24)    -41.7189  -41.7189  -41.5943 estimate D2E/DX2         !
 ! D246  D(11,9,26,13)    113.5079  113.5079  113.5298 estimate D2E/DX2         !
 ! D247  D(11,9,26,24)     30.6213   30.6213   30.6862 estimate D2E/DX2         !
 ! D248  D(15,9,26,13)    179.9922  179.9922 -179.9497 estimate D2E/DX2         !
 ! D249  D(15,9,26,24)     97.1057   97.1057   97.2066 estimate D2E/DX2         !
 ! D250  D(9,10,13,7)     -97.3794  -97.3794  -97.3787 estimate D2E/DX2         !
 ! D251  D(9,10,13,16)    -28.1481  -28.1481  -27.7506 estimate D2E/DX2         !
 ! D252  D(9,10,13,26)     41.2249   41.2249   41.3112 estimate D2E/DX2         !
 ! D253  D(9,10,13,37)    179.9076  179.9076 -179.9157 estimate D2E/DX2         !
 ! D254  D(9,10,13,38)    108.1093  108.1093  107.992  estimate D2E/DX2         !
 ! D255  D(24,10,13,7)   -179.7533 -179.7533 -179.8689 estimate D2E/DX2         !
 ! D256  D(24,10,13,16)  -110.522  -110.522  -110.2408 estimate D2E/DX2         !
 ! D257  D(24,10,13,26)   -41.149   -41.149   -41.179  estimate D2E/DX2         !
 ! D258  D(24,10,13,37)    97.5336   97.5336   97.5941 estimate D2E/DX2         !
 ! D259  D(24,10,13,38)    25.7354   25.7354   25.5018 estimate D2E/DX2         !
 ! D260  D(9,10,24,17)   -120.2749 -120.2749 -120.2422 estimate D2E/DX2         !
 ! D261  D(9,10,24,25)   -178.517  -178.517  -178.3522 estimate D2E/DX2         !
 ! D262  D(9,10,24,26)    -42.1904  -42.1904  -42.0777 estimate D2E/DX2         !
 ! D263  D(9,10,24,28)     95.2611   95.2611   95.2925 estimate D2E/DX2         !
 ! D264  D(9,10,24,29)     26.2324   26.2324   26.2682 estimate D2E/DX2         !
 ! D265  D(13,10,24,17)   -36.7757  -36.7757  -36.798  estimate D2E/DX2         !
 ! D266  D(13,10,24,25)   -95.0178  -95.0178  -94.908  estimate D2E/DX2         !
 ! D267  D(13,10,24,26)    41.3088   41.3088   41.3665 estimate D2E/DX2         !
 ! D268  D(13,10,24,28)   178.7602  178.7602  178.7367 estimate D2E/DX2         !
 ! D269  D(13,10,24,29)   109.7315  109.7315  109.7124 estimate D2E/DX2         !
 ! D270  D(9,11,12,2)      25.4549   25.4549   25.4623 estimate D2E/DX2         !
 ! D271  D(9,11,12,5)      95.1935   95.1935   95.1755 estimate D2E/DX2         !
 ! D272  D(9,11,12,14)   -112.8246 -112.8246 -112.8362 estimate D2E/DX2         !
 ! D273  D(9,11,12,15)    -41.6151  -41.6151  -41.641  estimate D2E/DX2         !
 ! D274  D(9,11,12,52)    178.8629  178.8629  178.8679 estimate D2E/DX2         !
 ! D275  D(27,11,12,2)    109.3926  109.3926  109.36   estimate D2E/DX2         !
 ! D276  D(27,11,12,5)    179.1312  179.1312  179.0733 estimate D2E/DX2         !
 ! D277  D(27,11,12,14)   -28.8869  -28.8869  -28.9384 estimate D2E/DX2         !
 ! D278  D(27,11,12,15)    42.3226   42.3226   42.2568 estimate D2E/DX2         !
 ! D279  D(27,11,12,52)   -97.1994  -97.1994  -97.2343 estimate D2E/DX2         !
 ! D280  D(9,11,27,15)     42.5509   42.5509   42.5528 estimate D2E/DX2         !
 ! D281  D(9,11,27,28)    -94.7475  -94.7475  -94.7731 estimate D2E/DX2         !
 ! D282  D(9,11,27,29)    -24.035   -24.035   -24.0641 estimate D2E/DX2         !
 ! D283  D(9,11,27,30)    -91.8935  -91.8935  -91.8842 estimate D2E/DX2         !
 ! D284  D(9,11,27,55)   -178.8185 -178.8185 -178.8487 estimate D2E/DX2         !
 ! D285  D(9,11,27,56)    112.0335  112.0335  112.0159 estimate D2E/DX2         !
 ! D286  D(12,11,27,15)   -42.1699  -42.1699  -42.101  estimate D2E/DX2         !
 ! D287  D(12,11,27,28)  -179.4682 -179.4682 -179.4269 estimate D2E/DX2         !
 ! D288  D(12,11,27,29)  -108.7557 -108.7557 -108.7179 estimate D2E/DX2         !
 ! D289  D(12,11,27,30)  -176.6143 -176.6143 -176.538  estimate D2E/DX2         !
 ! D290  D(12,11,27,55)    96.4607   96.4607   96.4975 estimate D2E/DX2         !
 ! D291  D(12,11,27,56)    27.3128   27.3128   27.3621 estimate D2E/DX2         !
 ! D292  D(2,12,14,51)    103.0171  103.0171  102.9931 estimate D2E/DX2         !
 ! D293  D(2,12,14,54)   -174.8983 -174.8983 -174.8878 estimate D2E/DX2         !
 ! D294  D(5,12,14,51)     33.5406   33.5406   33.5532 estimate D2E/DX2         !
 ! D295  D(5,12,14,54)    115.6252  115.6252  115.6723 estimate D2E/DX2         !
 ! D296  D(11,12,14,51)  -106.326  -106.326  -106.321  estimate D2E/DX2         !
 ! D297  D(11,12,14,54)   -24.2415  -24.2415  -24.2019 estimate D2E/DX2         !
 ! D298  D(15,12,14,51)  -175.8615 -175.8615 -175.8647 estimate D2E/DX2         !
 ! D299  D(15,12,14,54)   -93.7769  -93.7769  -93.7457 estimate D2E/DX2         !
 ! D300  D(52,12,14,51)   -36.6161  -36.6161  -36.6469 estimate D2E/DX2         !
 ! D301  D(52,12,14,54)    45.4685   45.4685   45.4722 estimate D2E/DX2         !
 ! D302  D(2,12,15,9)     -95.4415  -95.4415  -95.4308 estimate D2E/DX2         !
 ! D303  D(2,12,15,27)   -179.3216 -179.3216 -179.2727 estimate D2E/DX2         !
 ! D304  D(5,12,15,9)     -27.6682  -27.6682  -27.7099 estimate D2E/DX2         !
 ! D305  D(5,12,15,27)   -111.5482 -111.5482 -111.5517 estimate D2E/DX2         !
 ! D306  D(11,12,15,9)     41.6205   41.6205   41.6473 estimate D2E/DX2         !
 ! D307  D(11,12,15,27)   -42.2596  -42.2596  -42.1946 estimate D2E/DX2         !
 ! D308  D(14,12,15,9)   -178.3958 -178.3958 -178.4043 estimate D2E/DX2         !
 ! D309  D(14,12,15,27)    97.7241   97.7241   97.7539 estimate D2E/DX2         !
 ! D310  D(52,12,15,9)    111.9056  111.9056  111.9114 estimate D2E/DX2         !
 ! D311  D(52,12,15,27)    28.0256   28.0256   28.0696 estimate D2E/DX2         !
 ! D312  D(2,12,52,51)    -30.4999  -30.4999  -30.4938 estimate D2E/DX2         !
 ! D313  D(2,12,52,54)   -113.1322 -113.1322 -113.1579 estimate D2E/DX2         !
 ! D314  D(5,12,52,51)    -99.5777  -99.5777  -99.5328 estimate D2E/DX2         !
 ! D315  D(5,12,52,54)    177.79    177.79    177.8031 estimate D2E/DX2         !
 ! D316  D(11,12,52,51)   177.5989  177.5989  177.6008 estimate D2E/DX2         !
 ! D317  D(11,12,52,54)    94.9666   94.9666   94.9367 estimate D2E/DX2         !
 ! D318  D(14,12,52,51)    37.2405   37.2405   37.2712 estimate D2E/DX2         !
 ! D319  D(14,12,52,54)   -45.3917  -45.3917  -45.393  estimate D2E/DX2         !
 ! D320  D(15,12,52,51)   108.6952  108.6952  108.6933 estimate D2E/DX2         !
 ! D321  D(15,12,52,54)    26.0629   26.0629   26.0292 estimate D2E/DX2         !
 ! D322  D(7,13,16,6)      41.8054   41.8054   41.4689 estimate D2E/DX2         !
 ! D323  D(7,13,16,18)    -41.5917  -41.5917  -41.6847 estimate D2E/DX2         !
 ! D324  D(10,13,16,6)    -28.3377  -28.3377  -28.9108 estimate D2E/DX2         !
 ! D325  D(10,13,16,18)  -111.7349 -111.7349 -112.0644 estimate D2E/DX2         !
 ! D326  D(26,13,16,6)    -97.7549  -97.7549  -98.0839 estimate D2E/DX2         !
 ! D327  D(26,13,16,18)   178.8479  178.8479  178.7625 estimate D2E/DX2         !
 ! D328  D(37,13,16,6)    110.6122  110.6122  110.3063 estimate D2E/DX2         !
 ! D329  D(37,13,16,18)    27.2151   27.2151   27.1527 estimate D2E/DX2         !
 ! D330  D(38,13,16,6)   -178.9012 -178.9012 -179.1254 estimate D2E/DX2         !
 ! D331  D(38,13,16,18)    97.7017   97.7017   97.721  estimate D2E/DX2         !
 ! D332  D(7,13,26,9)      29.1559   29.1559   28.8766 estimate D2E/DX2         !
 ! D333  D(7,13,26,24)    111.6703  111.6703  111.5001 estimate D2E/DX2         !
 ! D334  D(10,13,26,9)    -41.2634  -41.2634  -41.3476 estimate D2E/DX2         !
 ! D335  D(10,13,26,24)    41.251    41.251    41.276  estimate D2E/DX2         !
 ! D336  D(16,13,26,9)     95.9036   95.9036   95.859  estimate D2E/DX2         !
 ! D337  D(16,13,26,24)   178.418   178.418   178.4825 estimate D2E/DX2         !
 ! D338  D(37,13,26,9)   -113.4884 -113.4884 -113.5502 estimate D2E/DX2         !
 ! D339  D(37,13,26,24)   -30.9741  -30.9741  -30.9267 estimate D2E/DX2         !
[...]
 10621,0.00022628,0.01047019,-0.05720889,0.01774346,-0.00221822,-0.0013
 3137,-0.00089469,-0.00395872,-0.00093680,0.00744466,-0.00009016,0.0000
 4124,-0.00000510,0.00007640,0.00001822,-0.00004864,0.00003162,0.000003
 48,-0.00000832,-0.00006488,0.00009890,0.00008714,-0.00008283,0.0000641
 7,-0.00012366,-0.00010490,-0.00026837,-0.00023699,0.00002972,0.0000219
 7,-0.00005778,-0.00000765,-0.00000324,0.00003195,0.00000389,-0.0000185
 4,0.00002852,0.00004678,-0.00011915,0.00001678,-0.00004530,0.00005098,
 -0.00004144,-0.00003086,0.00005602,-0.00003061,0.00013991,-0.00000125,
 0.00001619,-0.00003298,0.00003573,0.00000833,0.00013523,0.00000644,0.0
 0020998,0.00032306,-0.00049096,-0.00087586,0.00232257,0.00087749,0.000
 88331,-0.00035749,0.00293580,0.00202631,0.00567088,-0.01239900,-0.0004
 3286,-0.00178773,-0.01221877,-0.01066347,-0.00206621,0.00278166,0.0004
 3427,-0.00078158,0.00370759,-0.00149735,0.00029371,-0.00000224,-0.0009
 4936,0.00000730,-0.00032201,0.00001623,0.00028949,-0.00028190,0.000064
 04,-0.00001747,0.00004184,-0.00003135,0.00001272,0.00001674,0.00000911
 ,0.00003563,-0.00001582,0.00004101,0.00002907,0.00001133,-0.00000280,-
 0.00004113,-0.00001110,0.00002661,-0.00011229,-0.00006867,0.00006825,0
 .00000191,0.00000936,0.00001262,0.00001692,-0.00002163,0.00003320,0.00
 000292,0.00006858,-0.00010122,-0.00000976,-0.00000902,0.00001678,-0.00
 000840,-0.00000851,0.00001596,-0.00001388,-0.00003261,0.00006437,0.000
 01416,-0.00000150,0.00000056,-0.00002677,0.00003903,-0.00007278,0.0000
 8508,-0.00001202,0.00001324,0.00059266,-0.00043355,0.00025906,-0.14661
 372,0.22780401,-0.00001724,0.00010007,-0.00009135,-0.00001432,-0.00001
 472,0.00000736,0.00000224,0.00002289,-0.00000152,-0.00019467,-0.000014
 28,0.00012797,0.00000775,0.00000636,0.00000444,-0.00049624,-0.00024712
 ,-0.00046780,0.00023237,0.00089393,0.00123429,0.00008123,0.00016565,0.
 00009607,-0.00023591,0.00010960,0.00006291,0.00009980,0.00004241,0.000
 13680,0.00001361,-0.00000542,-0.00001411,-0.00001849,-0.00000224,0.000
 00118,-0.00009968,-0.00211482,0.00061744,-0.00000302,0.00000646,0.0000
 0269,0.00000291,0.00000552,-0.00002436,-0.00341490,0.00662016,-0.00147
 554,0.00025976,0.00013857,0.00006415,0.00560049,0.02469000,-0.02639285
 ,-0.00034533,-0.00062402,0.00268966,0.00199948,0.00809345,-0.00749246,
 0.00000556,-0.00002072,0.00000316,-0.00001038,-0.00000251,0.00000810,0
 .00000545,0.00000925,-0.00000015,0.00012944,-0.00004523,-0.00001677,0.
 00024168,0.00003453,0.00007819,0.00008097,0.00013204,0.00001167,-0.000
 03987,-0.00001513,0.00004649,0.00001036,0.00000235,-0.00001913,0.00001
 092,0.00002595,-0.00002709,-0.00008455,0.00004391,-0.00002550,0.000040
 70,-0.00003008,0.00002226,0.00003878,-0.00005229,0.00002693,-0.0000245
 9,-0.00001931,0.00009218,0.00007195,-0.00001366,-0.00000143,-0.0004328
 3,-0.00015422,0.00012180,0.00219508,-0.00064846,-0.00111819,0.00213810
 ,-0.00110348,0.00039357,0.00567506,-0.00176089,-0.00226818,0.02168125,
 -0.00453258,-0.05189831,-0.00075240,-0.01030886,-0.00321109,0.00040032
 ,0.00006235,-0.00415392,-0.00110023,-0.00129384,-0.00037171,0.00005593
 ,-0.00030302,0.00057485,-0.00010714,0.00008407,0.00019177,0.00003314,-
 0.00006318,0.00012296,0.00001290,-0.00002085,0.00000416,0.00007675,0.0
 0002173,-0.00005666,-0.00000296,-0.00001328,0.00000927,0.00000134,0.00
 000397,-0.00000644,0.00000456,0.00000274,-0.00000574,0.00000979,0.0000
 1126,-0.00001337,-0.00000514,-0.00000174,-0.00000537,0.00000143,0.0000
 0425,-0.00000627,0.00000496,-0.00001916,0.00003057,0.00000118,0.000006
 65,-0.00000761,-0.00000187,-0.00000058,-0.00000560,-0.00001189,0.00002
 602,-0.00004552,0.00001821,-0.00000445,0.00000300,-0.00005110,-0.00000
 758,-0.00001148,-0.00000300,0.00000134,-0.00000163,0.00000812,-0.00023
 011,0.00006784,-0.10156910,0.03334425,0.13150611,0.00002471,-0.0000143
 5,0.00000647,0.00000109,0.00000080,0.00000649,-0.00000821,0.00000632,-
 0.00000974,-0.00001694,-0.00000664,-0.00000218,-0.00000072,-0.00000422
 ,0.00000105,0.00020708,0.00000438,0.00007674,-0.00034192,-0.00014055,-
 0.00033271,-0.00002207,0.00000704,0.00000729,0.00002389,0.00000231,0.0
 0000094,0.00004231,-0.00001221,0.00001537,-0.00000555,-0.00000112,0.00
 000447,0.00001135,0.00000505,-0.00000802,-0.00030699,0.00008717,0.0001
 9312,-0.00000147,-0.00000235,-0.00000022,-0.00000239,-0.00000491,0.000
 00672,0.00021496,0.00008728,-0.00003791,-0.00008328,-0.00000758,-0.000
 05489,-0.00323120,0.00149505,-0.00044784,0.00001781,-0.00019164,-0.000
 00779,0.00024706,0.00011044,0.00000210,-0.00001422,0.00001075,-0.00000
 119,0.00001260,0.00000239,-0.00000788,0.00000351,-0.00000203,-0.000001
 44,-0.00001768,-0.00000572,-0.00001655,-0.00002489,-0.00003309,0.00000
 805,-0.00003859,-0.00013001,-0.00006724,0.00000880,-0.00000256,-0.0000
 0841,-0.00000280,0.00000293,0.00000585,-0.00000025,-0.00000335,0.00000
 760,0.00000468,-0.00001345,-0.00000027,-0.00000771,0.00000619,-0.00000
 674,-0.00000317,0.00000734,-0.00000698,0.00002356,-0.00001489,0.000000
 10,-0.00000453,0.00001072,0.00000137,0.00001740,0.00006206,0.00000354,
 0.00015436,-0.00008589,0.00013887,-0.00128274,-0.00139416,0.00025815,0
 .00018155,0.00016534,0.00014444,-0.00691189,0.00364679,0.00073574,-0.1
 7195315,0.10912385,0.02859555,0.00045981,-0.00029381,0.00035489,0.0000
 1655,-0.00002014,-0.00016851,0.00001469,-0.00001444,-0.00004475,-0.000
 01432,0.00002405,0.00001252,0.00003855,-0.00001706,0.00000620,-0.00000
 202,0.00000742,-0.00000570,-0.00001138,-0.00000264,-0.00000133,0.00000
 611,0.00000023,0.00000165,0.00000248,-0.00000016,-0.00000004,-0.000006
 92,-0.00000331,0.00000625,-0.00001727,-0.00001109,0.00001050,-0.000000
 08,0.00000158,0.00000253,0.00000134,-0.00000329,0.00000519,0.00000033,
 0.00001139,-0.00001447,-0.00000186,-0.00000121,0.00000189,-0.00000136,
 -0.00000168,0.00000317,-0.00000191,-0.00000254,0.00000888,0.00000162,-
 0.00000044,0.00000017,-0.00000357,0.00000812,-0.00000674,0.00001349,-0
 .00000209,0.00000254,-0.00006364,-0.00002552,0.00004588,0.00081308,0.0
 0092309,0.00064832,0.18170149,0.00003387,-0.00000302,0.00002653,0.0000
 0238,0.00000322,0.00000575,-0.00000901,-0.00000281,-0.00000259,-0.0000
 3334,-0.00001636,-0.00002442,-0.00000239,-0.00001130,-0.00000462,0.000
 29553,-0.00005525,0.00022847,0.00015553,0.00003668,0.00099088,0.000049
 25,0.00002472,0.00000895,0.00001177,0.00001646,0.00002052,-0.00001155,
 -0.00005903,-0.00000479,-0.00000712,0.00000485,0.00000519,0.00000628,0
 .00000719,-0.00000133,-0.00045697,-0.00023493,0.00008199,-0.00000111,-
 0.00000225,0.00000090,-0.00000466,-0.00000338,0.00000373,0.00029775,-0
 .00021750,-0.00015296,0.00000798,-0.00003510,-0.00002195,0.00027198,-0
 .00015925,0.00083241,-0.00019445,0.00033081,-0.00078893,0.00005734,0.0
 0020898,-0.00023412,-0.00001162,0.00000928,-0.00000372,0.00001183,0.00
 000358,-0.00000836,0.00000028,-0.00000110,0.00000036,-0.00001146,0.000
 03646,-0.00002378,0.00000341,-0.00003282,-0.00000696,0.00002503,-0.000
 06518,-0.00002450,0.00000861,-0.00000060,-0.00001290,-0.00000610,0.000
 00463,0.00000809,-0.00000672,-0.00000894,0.00001150,0.00000704,-0.0000
 2431,0.00000649,-0.00000976,0.00000874,-0.00000881,-0.00000866,0.00000
 876,-0.00000667,0.00004897,0.00000168,-0.00000557,-0.00001397,0.000010
 91,-0.00000090,-0.00000477,0.00007882,-0.00000972,0.00026641,-0.000086
 89,0.00000870,-0.00076506,-0.00026659,0.00030333,0.00010648,0.00027920
 ,-0.00007388,-0.00727412,0.00350754,0.00072644,0.12153280,-0.09488276,
 -0.02360235,-0.00006396,-0.00072484,0.00082251,0.00045431,-0.00015449,
 0.00018720,-0.00001275,0.00004459,-0.00006882,-0.00012575,0.00009205,-
 0.00010313,0.00000279,0.00005294,-0.00003729,-0.00000848,0.00000573,-0
 .00000401,-0.00002499,-0.00000795,0.00001589,0.00000442,0.00000531,-0.
 00000017,0.00000094,0.00000022,0.00000033,-0.00000361,-0.00000321,0.00
 000543,-0.00001242,-0.00001162,0.00001015,0.00000010,0.00000038,0.0000
 0215,-0.00000152,-0.00000256,0.00000485,0.00000530,0.00001014,-0.00001
 670,-0.00000093,-0.00000331,0.00000218,-0.00000132,-0.00000147,0.00000
 384,0.00000268,-0.00000317,0.00001223,-0.00000396,-0.00000012,0.000000
 18,-0.00000565,0.00000054,0.00000145,0.00000823,-0.00000092,0.00000132
 ,-0.00002534,0.00003545,0.00005542,-0.00076033,-0.00206086,-0.00068753
 ,-0.11333810,0.09450506,-0.00000645,-0.00000100,0.00002329,-0.00000020
 ,-0.00000122,-0.00000845,0.00002995,0.00000894,-0.00001508,0.00004000,
 -0.00002260,0.00000760,0.00000283,0.00000944,0.00000320,-0.00003905,-0
 .00003139,0.00013098,-0.00055975,0.00003713,-0.00106326,0.00000393,-0.
 00001162,0.00001431,-0.00001531,-0.00001604,0.00003491,0.00001256,0.00
 003325,-0.00003178,-0.00000038,0.00000552,-0.00001483,-0.00000823,-0.0
 0000833,0.00001342,-0.00024705,0.00031230,-0.00045129,0.00000015,0.000
 00386,-0.00000146,0.00000181,0.00000382,-0.00001947,0.00077897,0.00044
 416,0.00021545,0.00007463,-0.00003532,0.00010694,-0.00923111,0.0042270
 6,-0.00083069,-0.00013343,-0.00017684,0.00039505,0.00099478,-0.0000967
 7,-0.00044954,0.00002265,-0.00001160,-0.00000433,-0.00001642,-0.000006
 44,0.00001195,-0.00000884,0.00000242,0.00000586,0.00005033,0.00002743,
 -0.00000647,-0.00001456,-0.00005287,0.00001810,0.00000154,-0.00004643,
 -0.00003121,0.00000612,-0.00001412,0.00002341,-0.00000159,0.00000165,-
 0.00000841,-0.00000214,0.00000912,-0.00001242,-0.00002769,0.00003612,-
 0.00000943,0.00002788,-0.00002110,0.00001786,0.00001944,-0.00002340,0.
 00000945,-0.00013074,0.00004016,0.00005083,0.00003262,-0.00002429,0.00
 000802,-0.00008320,0.00007237,-0.00009970,0.00014035,-0.00008722,-0.00
 025695,0.00065380,0.00109216,0.00016511,-0.00027405,-0.00023573,0.0004
 7796,0.00509212,0.00005190,-0.00140202,0.03415481,-0.02623805,-0.01513
 495,-0.00055324,0.00002392,-0.00024604,-0.00001200,-0.00025479,-0.0002
 8236,0.00005114,0.00014632,-0.00011270,0.00002804,-0.00006975,0.000123
 59,-0.00005585,-0.00005858,-0.00003278,-0.00000084,-0.00000214,0.00000
 628,-0.00000209,-0.00002261,-0.00000107,-0.00000348,0.00000930,-0.0000
 0875,-0.00000444,-0.00000210,0.00000039,-0.00000114,-0.00000363,0.0000
 0457,0.00001374,0.00002077,-0.00002502,-0.00000061,-0.00000163,-0.0000
 0337,0.00000865,0.00000403,-0.00000936,-0.00001524,-0.00001661,0.00003
 216,0.00000340,0.00000491,-0.00000549,0.00000176,0.00000217,-0.0000058
 2,-0.00001703,0.00001078,-0.00002943,0.00001840,-0.00000195,0.00000088
 ,0.00000821,0.00000173,-0.00000887,-0.00000570,-0.00000077,0.00000124,
 -0.00005634,-0.00003630,-0.00003897,-0.00055773,-0.00073175,-0.0005633
 7,-0.03002319,0.02194794,0.01933099,0.00002951,-0.00002106,0.00000874,
 0.00000322,0.00000092,0.00000547,0.00001678,0.00000053,-0.00000041,-0.
 00001537,-0.00007361,-0.00001091,0.00000202,-0.00001296,0.00000079,0.0
 0055180,-0.00051087,0.00009050,0.00071703,-0.00025099,-0.00005609,-0.0
 0000387,0.00011189,0.00008635,-0.00000924,-0.00005061,0.00001821,0.000
 01465,0.00032228,0.00017715,0.00000637,0.00000515,0.00000670,-0.000004
 67,-0.00000008,-0.00000893,-0.00120126,0.00033661,0.00064017,-0.000002
 38,-0.00000079,0.00000086,-0.00001434,0.00000332,-0.00000144,-0.000343
 60,0.00007961,-0.00009903,0.00003013,0.00004216,0.00011170,-0.00463432
 ,-0.00271133,-0.00088452,0.00024956,-0.00003642,-0.00097867,0.00003114
 ,0.00108271,-0.00227347,0.00000258,0.00001628,-0.00000240,0.00000819,0
 .00000106,-0.00000819,-0.00000830,-0.00000317,-0.00000098,0.00000250,0
 .00006540,-0.00007928,0.00002619,-0.00002010,0.00004830,0.00019845,-0.
 00003855,-0.00001776,0.00000620,-0.00000464,0.00000791,0.00000432,0.00
 001522,0.00000533,-0.00001302,-0.00000166,-0.00000205,-0.00000967,0.00
 001264,-0.00000692,-0.00000016,0.00000184,-0.00000384,0.00000561,-0.00
 002185,0.00001743,-0.00008221,0.00001781,0.00001468,0.00000507,-0.0000
 1221,-0.00000615,-0.00007928,-0.00001107,-0.00012929,0.00040951,-0.000
 00768,0.00004244,-0.00052911,-0.00013169,-0.00041230,-0.00131309,0.000
 24043,0.00110417,-0.00341063,-0.00392213,-0.00581012,0.00004028,-0.000
 87826,-0.00100319,-0.00046347,0.00011166,0.00047620,0.00153859,-0.0007
 7279,0.00083737,-0.00022323,0.00008593,-0.00012511,-0.00027143,0.00002
 973,-0.00004404,-0.00003984,0.00010858,-0.00013518,-0.00000383,0.00001
 143,0.00000272,-0.00006646,-0.00002679,0.00003868,-0.00000385,0.000020
 79,-0.00002642,-0.00000288,-0.00000451,0.00000161,-0.00000695,-0.00000
 833,0.00001460,-0.00000423,-0.00000391,0.00000243,-0.00000187,0.000000
 81,0.00000197,-0.00000171,-0.00000021,0.00000086,0.00000238,0.00000317
 ,-0.00000335,-0.00000146,-0.00000015,-0.00000137,-0.00000114,-0.000001
 36,0.00000206,-0.00000124,0.00000814,-0.00000105,0.00000123,-0.0000009
 3,0.00000042,0.00000013,0.00000356,-0.00000517,0.00000525,-0.00000152,
 0.00000288,-0.00031246,0.00001515,0.00005004,-0.07457782,0.12616082,0.
 06713497,0.00014037,-0.00045736,-0.00016545,0.08360929,0.00007061,-0.0
 0001513,-0.00002097,-0.00000417,-0.00000665,0.00002433,-0.00000899,0.0
 0000797,-0.00000728,-0.00000828,-0.00002837,0.00002768,0.00000046,-0.0
 0002119,0.00000503,-0.00001515,-0.00055509,-0.00023346,0.00039311,0.00
 027871,-0.00000227,-0.00006819,0.00017396,0.00002842,-0.00001448,0.000
 02584,-0.00002964,0.00008027,0.00009238,0.00009287,-0.00000188,-0.0000
 1949,0.00003066,0.00002066,0.00001348,-0.00003109,-0.00066991,-0.00043
 609,-0.00009407,-0.00000176,-0.00000870,0.00000391,-0.00001156,-0.0000
 1902,0.00002723,-0.00072820,0.00125734,0.00014403,-0.00007182,0.000007
 21,-0.00006479,0.00048365,-0.00489108,-0.00345273,0.00022503,-0.000116
 02,0.00041742,0.00050277,0.00240013,-0.00158536,-0.00003794,0.00002962
 ,0.00000306,0.00003807,0.00001424,-0.00002856,0.00000858,-0.00000398,-
 0.00001332,-0.00000169,0.00002942,-0.00000557,-0.00007850,0.00008050,-
 0.00000922,0.00001547,-0.00001139,0.00006592,-0.00000136,0.00001664,-0
 .00004845,0.00000039,-0.00000220,0.00003745,-0.00000467,-0.00000996,0.
 00001326,0.00005114,-0.00008002,0.00003011,-0.00005486,0.00004625,-0.0
 0004209,-0.00004788,0.00004795,-0.00001442,0.00026013,-0.00001359,-0.0
 0010922,-0.00008611,0.00004456,-0.00001872,0.00006423,0.00000696,-0.00
 012653,-0.00039040,0.00000488,0.00063336,-0.00060878,0.00035190,-0.000
 48809,-0.00023308,0.00000258,0.00042160,-0.00153775,-0.00192594,-0.004
 30418,-0.00004791,-0.00082071,-0.00058656,0.00045236,-0.00044838,0.000
 40771,0.00056617,-0.00118423,-0.00017941,-0.00028702,0.00002950,0.0000
 4868,-0.00009738,0.00012315,0.00005829,0.00002274,0.00003273,-0.000027
 79,-0.00000372,0.00000169,-0.00001363,-0.00001925,0.00000459,-0.000019
 11,-0.00000194,-0.00000717,0.00001362,0.00000576,0.00000447,-0.0000029
 4,-0.00000130,0.00000240,-0.00000465,-0.00003327,-0.00004623,0.0000558
 2,0.00000010,0.00000380,0.00000841,-0.00001926,-0.00000895,0.00002044,
 0.00003437,0.00003935,-0.00007309,-0.00000870,-0.00001102,0.00001122,-
 0.00000423,-0.00000582,0.00001523,0.00003231,-0.00001868,0.00006414,-0
 .00003694,0.00000339,-0.00000163,-0.00000621,-0.00001444,0.00002877,0.
 00001534,0.00000087,-0.00000094,-0.00029369,0.00004260,0.00009593,0.12
 113242,-0.14245275,-0.05033636,-0.00001186,-0.00019102,-0.00022572,-0.
 11891605,0.14815228,-0.00012078,0.00005214,-0.00003655,-0.00000497,0.0
 0000136,-0.00003600,0.00002613,-0.00001741,0.00004480,-0.00001294,0.00
 000861,-0.00005555,0.00000655,0.00002614,-0.00000519,-0.00005120,0.000
 20162,0.00020128,-0.00051737,-0.00003465,-0.00007733,0.00005814,-0.000
 06434,-0.00001037,-0.00004088,0.00002164,0.00006626,0.00001204,0.00013
 486,0.00000647,0.00001248,0.00003171,-0.00005377,-0.00005460,-0.000022
 33,0.00004470,-0.00024915,-0.00018247,-0.00050137,0.00000206,0.0000149
 3,-0.00000510,0.00001407,0.00003151,-0.00004837,-0.00026955,-0.0004103
 3,-0.00044528,0.00016576,0.00010195,0.00032488,-0.00400938,-0.00634412
 ,0.00393862,0.00085524,0.00059261,-0.00073996,-0.00021249,-0.00085422,
 -0.00009774,0.00008727,-0.00003580,-0.00000416,-0.00007185,-0.00002287
 ,0.00004764,-0.00002826,0.00000400,0.00002096,-0.00000517,0.00000255,-
 0.00007453,0.00013690,-0.00010023,0.00003511,0.00002219,-0.00003968,-0
 .00008765,0.00000306,-0.00003699,0.00008515,0.00000913,0.00001533,-0.0
 0005489,0.00000101,0.00001870,-0.00004700,-0.00005385,0.00013852,-0.00
 002071,0.00007802,-0.00006713,0.00006059,0.00007019,-0.00009872,0.0000
 3483,-0.00043831,0.00006561,0.00011934,0.00011552,-0.00006929,0.000026
 19,0.00006542,0.00007231,-0.00002556,0.00003739,-0.00039506,-0.0004341
 5,0.00124845,-0.00102647,0.00077445,-0.00096839,0.00084956,0.00101278,
 -0.00357127,-0.00249716,0.00062746,-0.00024402,-0.00052722,-0.00070447
 ,-0.00080192,0.00071473,0.00110781,0.00086717,-0.00036093,0.00076990,-
 0.00014128,0.00020965,0.00005528,-0.00000888,0.00003817,-0.00012761,-0
 .00019884,0.00011996,-0.00012764,-0.00000010,-0.00002030,0.00003903,-0
 .00002421,-0.00003109,0.00003267,-0.00001637,0.00003873,-0.00006262,-0
 .00002442,-0.00001673,0.00000605,0.00001342,-0.00000484,0.00000696,0.0
 0008124,0.00008126,-0.00009473,-0.00000113,-0.00000777,-0.00001502,0.0
 0001492,0.00001929,-0.00003673,-0.00004013,-0.00007370,0.00012514,0.00
 001332,0.00001535,-0.00002133,0.00000747,0.00001153,-0.00002381,-0.000
 03413,0.00003590,-0.00009979,0.00003878,-0.00000336,0.00000158,0.00002
 664,0.00001577,-0.00003034,-0.00004965,0.00000340,-0.00000275,-0.00010
 435,0.00006217,-0.00010955,0.06697842,-0.04935178,-0.03855933,-0.00004
 788,-0.00040181,-0.00000866,-0.05865067,0.05936725,0.03326970\\-0.0000
 0838,0.00000243,-0.00000791,0.00000465,-0.00000140,-0.00000026,0.00000
 081,-0.00000151,0.00000666,-0.00000116,-0.00000053,-0.00000485,-0.0000
 0828,0.00000560,0.00000551,0.00000174,-0.00000653,0.00001234,0.0000029
 2,0.00001476,-0.00000351,0.00000122,0.00000654,-0.00000045,0.00000065,
 -0.00000111,-0.00000237,-0.00000080,0.00000027,-0.00000401,-0.00000057
 ,-0.00000031,0.00000143,-0.00000279,-0.00000299,-0.00000091,-0.0000071
 7,0.00001208,0.00001551,0.00000293,0.00000111,0.00000262,-0.00000033,0
 .00000003,0.00000086,0.00000650,0.00000677,-0.00000225,0.00000129,-0.0
 0000079,-0.00000339,-0.00001729,-0.00001336,-0.00000209,0.00001798,0.0
 0000661,-0.00001064,-0.00000741,-0.00000007,-0.00000617,0.00000237,-0.
 00001166,0.00000169,0.00000539,0.00000647,0.00001235,0.00000383,-0.000
 00042,0.00000343,-0.00000679,-0.00000057,0.00000169,0.00000324,-0.0000
 0586,-0.00000231,0.,0.00000146,0.00000145,-0.00000200,-0.00000225,0.00
 000312,-0.00000158,0.00000028,0.00000345,-0.00000502,-0.00000119,-0.00
 000371,0.00001091,-0.00000746,-0.00000938,0.00000177,0.00000199,-0.000
 00249,-0.00000381,0.00000320,-0.00000124,-0.00000363,0.00000475,0.0000
 1220,0.00000091,-0.00000810,0.00000017,0.00001795,-0.00000388,-0.00000
 677,-0.00002862,0.00001969,0.00001347,0.00000099,-0.00000778,-0.000006
 86,0.00000738,0.00000268,-0.00000532,-0.00000907,-0.00003037,-0.000013
 59,-0.00002027,0.00000298,0.00000824,0.00001848,-0.00000059,-0.0000086
 3,0.00002469,-0.00002505,0.00002388,-0.00001439,0.00001050,0.00000293,
 0.00000032,-0.00001043,-0.00001666,-0.00001279,0.00002268,-0.00002981,
 -0.00000157,-0.00000261,0.00000317,0.00001331,-0.00000511,0.00001293,-
 0.00002415,0.00000599,-0.00001226,-0.00000644,0.00000083,0.00000301,0.
 00001534,-0.00000489,0.00000989,-0.00001104,0.00000569,0.00000082,0.00
 000250,0.00000367,0.00000122,0.00000051,0.00000073,-0.00000175,-0.0000
 0335,-0.00000782,-0.00000081,0.00000261,-0.00000052,0.00000005,0.00000
 222,0.00000281,-0.00000248,0.00000134,-0.00000445,0.00000234,0.0000003
 6,-0.00000029,-0.00000142,0.00000984,-0.00000098,-0.00000288,-0.000000
 44,0.00000080,0.00000031,-0.00000041,0.00001169,0.00000481,-0.00000775
 ,-0.00001902,-0.00000509,0.00001313,0.00001688,0.00000209,0.00001722,0
 .00000792,0.00000863\\\@
 The archive entry for this job was punched.


 Everything starts as somebody's daydream.
                           -- Larry Niven
 Job cpu time:       5 days 20 hours 29 minutes 10.8 seconds.
 Elapsed time:       0 days  2 hours 56 minutes 14.1 seconds.
 File lengths (MBytes):  RWF=  13271 Int=      0 D2E=      0 Chk=    132 Scr=      2
 Normal termination of Gaussian 16 at Tue Feb 21 15:28:35 2023.
