 Entering Gaussian System, Link 0=/apps/GAU16/avx2/g16/g16
 Initial command:
 /apps/GAU16/avx2//g16/l1.exe "/localscratch/chegho/Gau-111980.inp" -scrdir="/localscratch/chegho/"
 Entering Link 1 = /apps/GAU16/avx2//g16/l1.exe PID=    111981.
  
 Copyright (c) 1988-2019, Gaussian, Inc.  All Rights Reserved.
  
 This is part of the Gaussian(R) 16 program.  It is based on
 the Gaussian(R) 09 system (copyright 2009, Gaussian, Inc.),
 the Gaussian(R) 03 system (copyright 2003, Gaussian, Inc.),
 the Gaussian(R) 98 system (copyright 1998, Gaussian, Inc.),
 the Gaussian(R) 94 system (copyright 1995, Gaussian, Inc.),
 the Gaussian 92(TM) system (copyright 1992, Gaussian, Inc.),
 the Gaussian 90(TM) system (copyright 1990, Gaussian, Inc.),
 the Gaussian 88(TM) system (copyright 1988, Gaussian, Inc.),
 the Gaussian 86(TM) system (copyright 1986, Carnegie Mellon
 University), and the Gaussian 82(TM) system (copyright 1983,
 Carnegie Mellon University). Gaussian is a federally registered
 trademark of Gaussian, Inc.
  
 This software contains proprietary and confidential information,
 including trade secrets, belonging to Gaussian, Inc.
  
 This software is provided under written license and may be
 used, copied, transmitted, or stored only in accord with that
 written license.
  
 The following legend is applicable only to US Government
 contracts under FAR:
  
                    RESTRICTED RIGHTS LEGEND
  
 Use, reproduction and disclosure by the US Government is
 subject to restrictions as set forth in subparagraphs (a)
 and (c) of the Commercial Computer Software - Restricted
 Rights clause in FAR 52.227-19.
  
 Gaussian, Inc.
 340 Quinnipiac St., Bldg. 40, Wallingford CT 06492
  
  
 ---------------------------------------------------------------
 Warning -- This program may not be used in any manner that
 competes with the business of Gaussian, Inc. or will provide
 assistance to any competitor of Gaussian, Inc.  The licensee
 of this program is prohibited from giving any competitor of
 Gaussian, Inc. access to this program.  By using this program,
 the user acknowledges that Gaussian, Inc. is engaged in the
 business of creating and licensing software in the field of
 computational chemistry and represents and warrants to the
 licensee that it is not a competitor of Gaussian, Inc. and that
 it will not use this program in any manner prohibited above.
 ---------------------------------------------------------------
  

 Cite this work as:
 Gaussian 16, Revision C.01,
 M. J. Frisch, G. W. Trucks, H. B. Schlegel, G. E. Scuseria, 
 M. A. Robb, J. R. Cheeseman, G. Scalmani, V. Barone, 
 G. A. Petersson, H. Nakatsuji, X. Li, M. Caricato, A. V. Marenich, 
 J. Bloino, B. G. Janesko, R. Gomperts, B. Mennucci, H. P. Hratchian, 
 J. V. Ortiz, A. F. Izmaylov, J. L. Sonnenberg, D. Williams-Young, 
 F. Ding, F. Lipparini, F. Egidi, J. Goings, B. Peng, A. Petrone, 
 T. Henderson, D. Ranasinghe, V. G. Zakrzewski, J. Gao, N. Rega, 
 G. Zheng, W. Liang, M. Hada, M. Ehara, K. Toyota, R. Fukuda, 
 J. Hasegawa, M. Ishida, T. Nakajima, Y. Honda, O. Kitao, H. Nakai, 
 T. Vreven, K. Throssell, J. A. Montgomery, Jr., J. E. Peralta, 
 F. Ogliaro, M. J. Bearpark, J. J. Heyd, E. N. Brothers, K. N. Kudin, 
 V. N. Staroverov, T. A. Keith, R. Kobayashi, J. Normand, 
 K. Raghavachari, A. P. Rendell, J. C. Burant, S. S. Iyengar, 
 J. Tomasi, M. Cossi, J. M. Millam, M. Klene, C. Adamo, R. Cammi, 
 J. W. Ochterski, R. L. Martin, K. Morokuma, O. Farkas, 
 J. B. Foresman, and D. J. Fox, Gaussian, Inc., Wallingford CT, 2019.
 
 ******************************************
 Gaussian 16:  ES64L-G16RevC.01  3-Jul-2019
                14-Feb-2023 
 ******************************************
 %nprocshared=48
 Will use up to   48 processors via shared memory.
 %chk=Mo19S43_min.chk
 %mem=100GB
 ---------------------------------------------------------
 # opt freq b3lyp/gen nosymm pseudo=read scf=maxcycles=500
 ---------------------------------------------------------
 1/18=20,19=15,26=3,38=1/1,3;
 2/9=110,12=2,15=1,17=6,18=5,40=1/2;
 3/5=7,11=2,16=1,17=8,25=1,30=1,71=1,74=-5/1,2,3;
 4//1;
 5/5=2,7=500,38=5/2;
 6/7=2,8=2,9=2,10=2,28=1/1;
 7/30=1/1,2,3,16;
 1/18=20,19=15,26=3/3(2);
 2/9=110,15=1/2;
 99//99;
 2/9=110,15=1/2;
 3/5=7,6=1,11=2,16=1,17=8,25=1,30=1,71=1,74=-5,82=7/1,2,3;
 4/5=5,16=3,69=1/1;
 5/5=2,7=500,38=5/2;
 7/30=1/1,2,3,16;
 1/18=20,19=15,26=3/3(-5);
 2/9=110,15=1/2;
 6/7=2,8=2,9=2,10=2,19=2,28=1/1;
 99/9=1/99;
 -------------------
 Title Card Required
 -------------------
 Symbolic Z-matrix:
 Charge =  0 Multiplicity = 1
 42                    0.1455    1.41432   12.63635 
 16                    2.15758   2.32498   13.69751 
 16                   -0.93719   2.20609   14.81025 
 16                   -0.61469   1.04958   10.36392 
 16                    1.77171  -0.34836   12.07439 
 42                   -2.18365   2.78645   10.99311 
 16                   -2.9726    2.54067   8.69528 
 16                   -0.21405   3.71392   12.04564 
 42                    0.85769   2.95873   9.97731 
 16                    0.07677   2.65975   7.67699 
 16                    2.49291   1.21841   9.39587 
 42                    3.2525    1.53067   11.67883 
 42                   -1.47866   4.42285   8.33228 
 16                    5.34155   2.42812   12.87397 
 16                    2.88373   3.83955   11.05284 
 16                   -2.46071   5.13626   10.43816 
 16                    1.27654   6.90574   6.46204 
 42                   -4.44869   4.3293    9.40332 
 16                   -6.02292   2.35952   9.65576 
 16                   -5.53504   4.90758   11.35955 
 42                    2.36703   0.04265   14.36315 
 16                    4.45212  -1.03788   14.78524 
 16                    1.46319   0.83501   16.36305 
 42                    1.52191   4.56091   7.32109 
 16                    0.65651   4.3349    4.93357 
 16                    0.51801   5.30207   9.37965 
 42                    3.94015   3.12443   8.98351 
 16                    3.16865   2.83686   6.70435 
 16                    3.50099   5.45322   8.43436 
 42                    4.53669   4.78053   6.41791 
 16                    6.72237   4.0493    6.03696 
 16                    4.31836   6.95578   5.69957 
 42                    2.43448   5.89862   4.46614 
 16                    3.913     4.28048   4.02519 
 16                   -1.34296   7.25962   4.00537 
 42                   -0.93092   6.07353   5.70815 
 16                   -2.34481   4.20882   5.97035 
 16                   -1.74931   6.87828   7.75322 
 42                   -3.92024   5.99934   6.80127 
 16                   -5.38283   4.22995   6.99787 
 16                   -4.59979   7.22534   5.22293 
 42                   -5.33732   2.44763   11.77538 
 16                   -3.44008   3.41235   13.08414 
 16                   -3.65053   0.76511   11.49366 
 42                   -2.79466   1.11655   13.79962 
 16                   -1.31422  -0.6158    13.1169 
 16                   -4.30502   0.49297   15.13729 
 42                   -0.55252  -0.12723   15.36821 
 16                    1.05191  -1.85177   14.74885 
 16                   -1.56746  -0.98864   17.014 
 42                    5.61126   0.13131   13.24193 
 16                    4.96159  -0.35865   11.07812 
 16                    8.25803   1.25616   11.00836 
 42                    6.22539   1.7541    10.65329 
 16                    5.68495   1.26539   8.30686 
 16                    6.05108   4.12195   10.06762 
 42                    6.9923    3.17311   8.1399 
 16                    9.06818   2.80441   8.33254 
 16                    2.14548   6.93022   2.64188 
 16                    7.65633  -0.34583   13.59022 
 16                   -7.00208   1.8634    12.94561 
 16                   -4.78596   6.81756   8.77489 
 

 GradGradGradGradGradGradGradGradGradGradGradGradGradGradGradGradGradGrad
 Berny optimization.
 Initialization pass.
                           ----------------------------
                           !    Initial Parameters    !
                           ! (Angstroms and Degrees)  !
 --------------------------                            --------------------------
 ! Name  Definition              Value          Derivative Info.                !
 --------------------------------------------------------------------------------
 ! R1    R(1,2)                  2.4503         estimate D2E/DX2                !
 ! R2    R(1,3)                  2.5544         estimate D2E/DX2                !
 ! R3    R(1,4)                  2.4238         estimate D2E/DX2                !
 ! R4    R(1,5)                  2.4632         estimate D2E/DX2                !
 ! R5    R(1,8)                  2.4013         estimate D2E/DX2                !
 ! R6    R(1,46)                 2.5462         estimate D2E/DX2                !
 ! R7    R(2,12)                 2.43           estimate D2E/DX2                !
 ! R8    R(2,21)                 2.3866         estimate D2E/DX2                !
 ! R9    R(3,45)                 2.3788         estimate D2E/DX2                !
 ! R10   R(3,48)                 2.4298         estimate D2E/DX2                !
 ! R11   R(4,6)                  2.4237         estimate D2E/DX2                !
 ! R12   R(4,9)                  2.4418         estimate D2E/DX2                !
 ! R13   R(5,12)                 2.4249         estimate D2E/DX2                !
 ! R14   R(5,21)                 2.397          estimate D2E/DX2                !
 ! R15   R(6,7)                  2.4419         estimate D2E/DX2                !
 ! R16   R(6,8)                  2.4181         estimate D2E/DX2                !
 ! R17   R(6,16)                 2.4303         estimate D2E/DX2                !
 ! R18   R(6,43)                 2.5185         estimate D2E/DX2                !
 ! R19   R(6,44)                 2.5472         estimate D2E/DX2                !
 ! R20   R(7,13)                 2.4303         estimate D2E/DX2                !
 ! R21   R(7,18)                 2.4247         estimate D2E/DX2                !
 ! R22   R(8,9)                  2.4489         estimate D2E/DX2                !
 ! R23   R(9,10)                 2.4476         estimate D2E/DX2                !
 ! R24   R(9,11)                 2.4578         estimate D2E/DX2                !
 ! R25   R(9,15)                 2.4571         estimate D2E/DX2                !
 ! R26   R(9,26)                 2.4421         estimate D2E/DX2                !
 ! R27   R(10,13)                2.4408         estimate D2E/DX2                !
 ! R28   R(10,24)                2.4144         estimate D2E/DX2                !
 ! R29   R(11,12)                2.4262         estimate D2E/DX2                !
 ! R30   R(11,27)                2.4285         estimate D2E/DX2                !
 ! R31   R(12,14)                2.5686         estimate D2E/DX2                !
 ! R32   R(12,15)                2.4205         estimate D2E/DX2                !
 ! R33   R(12,52)                2.6175         estimate D2E/DX2                !
 ! R34   R(13,16)                2.4307         estimate D2E/DX2                !
 ! R35   R(13,26)                2.4201         estimate D2E/DX2                !
 ! R36   R(13,37)                2.5248         estimate D2E/DX2                !
 ! R37   R(13,38)                2.5373         estimate D2E/DX2                !
 ! R38   R(14,51)                2.3417         estimate D2E/DX2                !
 ! R39   R(14,54)                2.4833         estimate D2E/DX2                !
 ! R40   R(15,27)                2.431          estimate D2E/DX2                !
 ! R41   R(16,18)                2.382          estimate D2E/DX2                !
 ! R42   R(17,24)                2.5093         estimate D2E/DX2                !
 ! R43   R(17,33)                2.5177         estimate D2E/DX2                !
 ! R44   R(17,36)                2.4766         estimate D2E/DX2                !
 ! R45   R(18,19)                2.5342         estimate D2E/DX2                !
 ! R46   R(18,20)                2.3111         estimate D2E/DX2                !
 ! R47   R(18,40)                2.5824         estimate D2E/DX2                !
 ! R48   R(18,62)                2.5885         estimate D2E/DX2                !
 ! R49   R(19,42)                2.2295         estimate D2E/DX2                !
 ! R50   R(20,42)                2.5027         estimate D2E/DX2                !
 ! R51   R(21,22)                2.3861         estimate D2E/DX2                !
 ! R52   R(21,23)                2.3333         estimate D2E/DX2                !
 ! R53   R(21,48)                3.0924         estimate D2E/DX2                !
 ! R54   R(21,49)                2.3382         estimate D2E/DX2                !
 ! R55   R(22,51)                2.2566         estimate D2E/DX2                !
 ! R56   R(23,48)                2.4451         estimate D2E/DX2                !
 ! R57   R(24,25)                2.5496         estimate D2E/DX2                !
 ! R58   R(24,26)                2.4072         estimate D2E/DX2                !
 ! R59   R(24,28)                2.4626         estimate D2E/DX2                !
 ! R60   R(24,29)                2.4397         estimate D2E/DX2                !
 ! R61   R(25,33)                2.4135         estimate D2E/DX2                !
 ! R62   R(25,36)                2.4785         estimate D2E/DX2                !
 ! R63   R(27,28)                2.4233         estimate D2E/DX2                !
 ! R64   R(27,29)                2.4326         estimate D2E/DX2                !
 ! R65   R(27,30)                3.1114         estimate D2E/DX2                !
 ! R66   R(27,55)                2.6378         estimate D2E/DX2                !
 ! R67   R(27,56)                2.5742         estimate D2E/DX2                !
 ! R68   R(28,30)                2.394          estimate D2E/DX2                !
 ! R69   R(29,30)                2.3646         estimate D2E/DX2                !
 ! R70   R(30,31)                2.336          estimate D2E/DX2                !
 ! R71   R(30,32)                2.3012         estimate D2E/DX2                !
 ! R72   R(30,33)                3.0788         estimate D2E/DX2                !
 ! R73   R(30,34)                2.5227         estimate D2E/DX2                !
 ! R74   R(31,57)                2.2941         estimate D2E/DX2                !
 ! R75   R(32,33)                2.4876         estimate D2E/DX2                !
 ! R76   R(33,34)                2.2358         estimate D2E/DX2                !
 ! R77   R(33,59)                2.1156         estimate D2E/DX2                !
 ! R78   R(35,36)                2.1157         estimate D2E/DX2                !
 ! R79   R(36,37)                2.3548         estimate D2E/DX2                !
 ! R80   R(36,38)                2.3451         estimate D2E/DX2                !
 ! R81   R(37,39)                2.5255         estimate D2E/DX2                !
 ! R82   R(38,39)                2.5282         estimate D2E/DX2                !
 ! R83   R(39,40)                2.304          estimate D2E/DX2                !
 ! R84   R(39,41)                2.1109         estimate D2E/DX2                !
 ! R85   R(39,62)                2.3052         estimate D2E/DX2                !
 ! R86   R(42,43)                2.4986         estimate D2E/DX2                !
 ! R87   R(42,44)                2.3991         estimate D2E/DX2                !
 ! R88   R(42,61)                2.1171         estimate D2E/DX2                !
 ! R89   R(43,45)                2.4898         estimate D2E/DX2                !
 ! R90   R(44,45)                2.4846         estimate D2E/DX2                !
 ! R91   R(45,46)                2.3788         estimate D2E/DX2                !
 ! R92   R(45,47)                2.1117         estimate D2E/DX2                !
 ! R93   R(45,48)                3.0058         estimate D2E/DX2                !
 ! R94   R(46,48)                2.4264         estimate D2E/DX2                !
 ! R95   R(48,49)                2.4355         estimate D2E/DX2                !
 ! R96   R(48,50)                2.1168         estimate D2E/DX2                !
 ! R97   R(51,52)                2.3118         estimate D2E/DX2                !
 ! R98   R(51,54)                3.1164         estimate D2E/DX2                !
 ! R99   R(51,60)                2.1287         estimate D2E/DX2                !
 ! R100  R(52,54)                2.4983         estimate D2E/DX2                !
 ! R101  R(53,54)                2.1227         estimate D2E/DX2                !
 ! R102  R(54,55)                2.457          estimate D2E/DX2                !
 ! R103  R(54,56)                2.4454         estimate D2E/DX2                !
 ! R104  R(54,57)                2.9864         estimate D2E/DX2                !
 ! R105  R(55,57)                2.3187         estimate D2E/DX2                !
 ! R106  R(56,57)                2.3457         estimate D2E/DX2                !
 ! R107  R(57,58)                2.1172         estimate D2E/DX2                !
 ! A1    A(2,1,3)               82.2            estimate D2E/DX2                !
 ! A2    A(2,1,4)              136.0135         estimate D2E/DX2                !
 ! A3    A(2,1,5)               79.7833         estimate D2E/DX2                !
 ! A4    A(2,1,8)               82.7369         estimate D2E/DX2                !
 ! A5    A(2,1,46)             133.2641         estimate D2E/DX2                !
 ! A6    A(3,1,4)              135.365          estimate D2E/DX2                !
 ! A7    A(3,1,5)              134.0909         estimate D2E/DX2                !
 ! A8    A(3,1,8)               81.3182         estimate D2E/DX2                !
 ! A9    A(3,1,46)              80.9978         estimate D2E/DX2                !
 ! A10   A(4,1,5)               83.4243         estimate D2E/DX2                !
 ! A11   A(4,1,8)               82.3289         estimate D2E/DX2                !
 ! A12   A(4,1,46)              82.944          estimate D2E/DX2                !
 ! A13   A(5,1,8)              136.7203         estimate D2E/DX2                !
 ! A14   A(5,1,46)              81.4302         estimate D2E/DX2                !
 ! A15   A(8,1,46)             136.3964         estimate D2E/DX2                !
 ! A16   A(1,2,12)              83.6123         estimate D2E/DX2                !
 ! A17   A(1,2,21)              80.6444         estimate D2E/DX2                !
 ! A18   A(12,2,21)             83.0825         estimate D2E/DX2                !
 ! A19   A(1,3,45)              80.0625         estimate D2E/DX2                !
 ! A20   A(1,3,48)              80.2506         estimate D2E/DX2                !
 ! A21   A(1,4,6)               81.4776         estimate D2E/DX2                !
 ! A22   A(1,4,9)               80.8897         estimate D2E/DX2                !
 ! A23   A(6,4,9)               82.5964         estimate D2E/DX2                !
 ! A24   A(1,5,12)              83.446          estimate D2E/DX2                !
 ! A25   A(1,5,21)              80.177          estimate D2E/DX2                !
 ! A26   A(12,5,21)             82.9745         estimate D2E/DX2                !
 ! A27   A(4,6,7)               83.8424         estimate D2E/DX2                !
 ! A28   A(4,6,8)               81.9861         estimate D2E/DX2                !
 ! A29   A(4,6,16)             135.025          estimate D2E/DX2                !
 ! A30   A(4,6,43)             135.7733         estimate D2E/DX2                !
 ! A31   A(4,6,44)              81.67           estimate D2E/DX2                !
 ! A32   A(7,6,8)              135.3452         estimate D2E/DX2                !
 ! A33   A(7,6,16)              81.1187         estimate D2E/DX2                !
 ! A34   A(7,6,43)             130.1743         estimate D2E/DX2                !
 ! A35   A(7,6,44)              85.353          estimate D2E/DX2                !
 ! A36   A(8,6,16)              79.712          estimate D2E/DX2                !
 ! A37   A(8,6,43)              87.1132         estimate D2E/DX2                !
 ! A38   A(8,6,44)             133.4641         estimate D2E/DX2                !
 ! A39   A(16,6,43)             83.8243         estimate D2E/DX2                !
 ! A40   A(16,6,44)            138.2879         estimate D2E/DX2                !
 ! A41   A(43,6,44)             75.3304         estimate D2E/DX2                !
 ! A42   A(6,7,13)              82.183          estimate D2E/DX2                !
 ! A43   A(6,7,18)              81.2376         estimate D2E/DX2                !
 ! A44   A(13,7,18)             81.1724         estimate D2E/DX2                !
 ! A45   A(1,8,6)               82.0522         estimate D2E/DX2                !
 ! A46   A(1,8,9)               81.1945         estimate D2E/DX2                !
 ! A47   A(6,8,9)               82.5627         estimate D2E/DX2                !
 ! A48   A(4,9,8)               80.9955         estimate D2E/DX2                !
 ! A49   A(4,9,10)              82.0044         estimate D2E/DX2                !
 ! A50   A(4,9,11)              83.3972         estimate D2E/DX2                !
 ! A51   A(4,9,15)             135.0875         estimate D2E/DX2                !
 ! A52   A(4,9,26)             134.8399         estimate D2E/DX2                !
 ! A53   A(8,9,10)             133.7747         estimate D2E/DX2                !
 ! A54   A(8,9,11)             135.1819         estimate D2E/DX2                !
 ! A55   A(8,9,15)              83.1434         estimate D2E/DX2                !
 ! A56   A(8,9,26)              81.3682         estimate D2E/DX2                !
 ! A57   A(10,9,11)             84.4591         estimate D2E/DX2                !
 ! A58   A(10,9,15)            135.9104         estimate D2E/DX2                !
 ! A59   A(10,9,26)             80.9571         estimate D2E/DX2                !
 ! A60   A(11,9,15)             78.9764         estimate D2E/DX2                !
 ! A61   A(11,9,26)            135.5691         estimate D2E/DX2                !
 ! A62   A(15,9,26)             82.9831         estimate D2E/DX2                !
 ! A63   A(9,10,13)             82.112          estimate D2E/DX2                !
 ! A64   A(9,10,24)             81.4531         estimate D2E/DX2                !
 ! A65   A(13,10,24)            81.5014         estimate D2E/DX2                !
 ! A66   A(9,11,12)             83.9475         estimate D2E/DX2                !
 ! A67   A(9,11,27)             83.1608         estimate D2E/DX2                !
 ! A68   A(12,11,27)            82.6566         estimate D2E/DX2                !
 ! A69   A(2,12,5)              80.9452         estimate D2E/DX2                !
 ! A70   A(2,12,11)            133.0546         estimate D2E/DX2                !
 ! A71   A(2,12,14)             82.2831         estimate D2E/DX2                !
 ! A72   A(2,12,15)             80.4673         estimate D2E/DX2                !
 ! A73   A(2,12,52)            136.1205         estimate D2E/DX2                !
 ! A74   A(5,12,11)             82.1011         estimate D2E/DX2                !
 ! A75   A(5,12,14)            133.7482         estimate D2E/DX2                !
 ! A76   A(5,12,15)            133.497          estimate D2E/DX2                !
 ! A77   A(5,12,52)             82.926          estimate D2E/DX2                !
 ! A78   A(11,12,14)           137.5112         estimate D2E/DX2                !
 ! A79   A(11,12,15)            80.312          estimate D2E/DX2                !
 ! A80   A(11,12,52)            84.0061         estimate D2E/DX2                !
 ! A81   A(14,12,15)            84.892          estimate D2E/DX2                !
 ! A82   A(14,12,52)            80.0921         estimate D2E/DX2                !
 ! A83   A(15,12,52)           136.7728         estimate D2E/DX2                !
 ! A84   A(7,13,10)             82.6692         estimate D2E/DX2                !
 ! A85   A(7,13,16)             81.3463         estimate D2E/DX2                !
 ! A86   A(7,13,26)            136.3777         estimate D2E/DX2                !
 ! A87   A(7,13,37)             82.1371         estimate D2E/DX2                !
 ! A88   A(7,13,38)            135.8903         estimate D2E/DX2                !
 ! A89   A(10,13,16)           134.5955         estimate D2E/DX2                !
 ! A90   A(10,13,26)            81.5382         estimate D2E/DX2                !
 ! A91   A(10,13,37)            84.6192         estimate D2E/DX2                !
 ! A92   A(10,13,38)           134.8915         estimate D2E/DX2                !
 ! A93   A(16,13,26)            81.4746         estimate D2E/DX2                !
 ! A94   A(16,13,37)           134.1679         estimate D2E/DX2                !
 ! A95   A(16,13,38)            82.5646         estimate D2E/DX2                !
 ! A96   A(26,13,37)           135.9469         estimate D2E/DX2                !
 ! A97   A(26,13,38)            80.5138         estimate D2E/DX2                !
 ! A98   A(37,13,38)            80.3252         estimate D2E/DX2                !
 ! A99   A(12,14,51)            79.8685         estimate D2E/DX2                !
 ! A100  A(12,14,54)            77.2059         estimate D2E/DX2                !
 ! A101  A(9,15,12)             84.0814         estimate D2E/DX2                !
 ! A102  A(9,15,27)             83.1235         estimate D2E/DX2                !
 ! A103  A(12,15,27)            82.7229         estimate D2E/DX2                !
 ! A104  A(6,16,13)             82.4141         estimate D2E/DX2                !
 ! A105  A(6,16,18)             82.3454         estimate D2E/DX2                !
 ! A106  A(13,16,18)            82.0315         estimate D2E/DX2                !
 ! A107  A(24,17,33)            81.5249         estimate D2E/DX2                !
 ! A108  A(24,17,36)            82.9556         estimate D2E/DX2                !
 ! A109  A(33,17,36)            91.9601         estimate D2E/DX2                !
 ! A110  A(7,18,16)             82.4552         estimate D2E/DX2                !
 ! A111  A(7,18,19)             80.4375         estimate D2E/DX2                !
 ! A112  A(7,18,20)            135.8798         estimate D2E/DX2                !
 ! A113  A(7,18,40)             85.4018         estimate D2E/DX2                !
 ! A114  A(7,18,62)            135.8512         estimate D2E/DX2                !
 ! A115  A(16,18,19)           137.6022         estimate D2E/DX2                !
 ! A116  A(16,18,20)            86.5489         estimate D2E/DX2                !
 ! A117  A(16,18,40)           136.0214         estimate D2E/DX2                !
 ! A118  A(16,18,62)            83.6018         estimate D2E/DX2                !
 ! A119  A(19,18,20)            79.5238         estimate D2E/DX2                !
 ! A120  A(19,18,40)            80.6869         estimate D2E/DX2                !
 ! A121  A(19,18,62)           133.6654         estimate D2E/DX2                !
 ! A122  A(20,18,40)           128.9052         estimate D2E/DX2                !
 ! A123  A(20,18,62)            84.4753         estimate D2E/DX2                !
 ! A124  A(40,18,62)            76.3321         estimate D2E/DX2                !
 ! A125  A(18,19,42)            82.7012         estimate D2E/DX2                !
 ! A126  A(18,20,42)            81.8112         estimate D2E/DX2                !
 ! A127  A(2,21,5)              82.4085         estimate D2E/DX2                !
 ! A128  A(2,21,22)            123.9931         estimate D2E/DX2                !
 ! A129  A(2,21,23)             83.1257         estimate D2E/DX2                !
 ! A130  A(2,21,48)             93.4586         estimate D2E/DX2                !
 ! A131  A(2,21,49)            140.484          estimate D2E/DX2                !
 ! A132  A(5,21,22)            108.1837         estimate D2E/DX2                !
 ! A133  A(5,21,23)            141.0398         estimate D2E/DX2                !
 ! A134  A(5,21,48)             93.8355         estimate D2E/DX2                !
 ! A135  A(5,21,49)             83.4339         estimate D2E/DX2                !
 ! A136  A(22,21,23)           109.9176         estimate D2E/DX2                !
 ! A137  A(22,21,48)           137.9577         estimate D2E/DX2                !
 ! A138  A(22,21,49)            95.4754         estimate D2E/DX2                !
 ! A139  A(23,21,49)            85.1744         estimate D2E/DX2                !
 ! A140  A(21,22,51)            95.3509         estimate D2E/DX2                !
 ! A141  A(10,24,17)           136.6981         estimate D2E/DX2                !
 ! A142  A(10,24,25)            82.2455         estimate D2E/DX2                !
 ! A143  A(10,24,26)            82.3437         estimate D2E/DX2                !
 ! A144  A(10,24,28)            83.4481         estimate D2E/DX2                !
 ! A145  A(10,24,29)           134.9309         estimate D2E/DX2                !
 ! A146  A(17,24,25)            74.2795         estimate D2E/DX2                !
 ! A147  A(17,24,26)            87.9525         estimate D2E/DX2                !
 ! A148  A(17,24,28)           129.3358         estimate D2E/DX2                !
 ! A149  A(17,24,29)            83.9018         estimate D2E/DX2                !
 ! A150  A(25,24,26)           133.3572         estimate D2E/DX2                !
 ! A151  A(25,24,28)            86.0084         estimate D2E/DX2                !
 ! A152  A(25,24,29)           137.3129         estimate D2E/DX2                !
 ! A153  A(26,24,28)           135.1197         estimate D2E/DX2                !
 ! A154  A(26,24,29)            80.5303         estimate D2E/DX2                !
 ! A155  A(28,24,29)            80.0895         estimate D2E/DX2                !
 ! A156  A(24,25,33)            82.7546         estimate D2E/DX2                !
 ! A157  A(24,25,36)            82.0998         estimate D2E/DX2                !
 ! A158  A(33,25,36)            94.4656         estimate D2E/DX2                !
 ! A159  A(9,26,13)             82.6496         estimate D2E/DX2                !
 ! A160  A(9,26,24)             81.7114         estimate D2E/DX2                !
 ! A161  A(13,26,24)            82.0747         estimate D2E/DX2                !
 ! A162  A(11,27,15)            80.0586         estimate D2E/DX2                !
 ! A163  A(11,27,28)            82.925          estimate D2E/DX2                !
 ! A164  A(11,27,29)           133.0087         estimate D2E/DX2                !
 ! A165  A(11,27,30)           132.2242         estimate D2E/DX2                !
 ! A166  A(11,27,55)            83.3736         estimate D2E/DX2                !
 ! A167  A(11,27,56)           136.1647         estimate D2E/DX2                !
 ! A168  A(15,27,28)           134.1996         estimate D2E/DX2                !
 ! A169  A(15,27,29)            80.3341         estimate D2E/DX2                !
 ! A170  A(15,27,30)           128.9512         estimate D2E/DX2                !
 ! A171  A(15,27,55)           135.4895         estimate D2E/DX2                !
 ! A172  A(15,27,56)            83.3314         estimate D2E/DX2                !
 ! A173  A(28,27,29)            81.0146         estimate D2E/DX2                !
 ! A174  A(28,27,55)            83.4363         estimate D2E/DX2                !
 ! A175  A(28,27,56)           134.6805         estimate D2E/DX2                !
 ! A176  A(29,27,55)           137.4069         estimate D2E/DX2                !
 ! A177  A(29,27,56)            82.6542         estimate D2E/DX2                !
 ! A178  A(30,27,55)            92.1081         estimate D2E/DX2                !
 ! A179  A(30,27,56)            89.071          estimate D2E/DX2                !
 ! A180  A(55,27,56)            80.7185         estimate D2E/DX2                !
 ! A181  A(24,28,27)            83.9307         estimate D2E/DX2                !
 ! A182  A(24,28,30)            81.0073         estimate D2E/DX2                !
 ! A183  A(24,29,27)            84.2219         estimate D2E/DX2                !
 ! A184  A(24,29,30)            82.0754         estimate D2E/DX2                !
 ! A185  A(27,30,31)            98.4672         estimate D2E/DX2                !
 ! A186  A(27,30,32)           137.9323         estimate D2E/DX2                !
 ! A187  A(27,30,33)           125.8118         estimate D2E/DX2                !
 ! A188  A(27,30,34)           128.9897         estimate D2E/DX2                !
 ! A189  A(28,30,29)            83.0296         estimate D2E/DX2                !
 ! A190  A(28,30,31)           107.4595         estimate D2E/DX2                !
 ! A191  A(28,30,32)           138.6413         estimate D2E/DX2                !
 ! A192  A(28,30,33)            88.8835         estimate D2E/DX2                !
 ! A193  A(28,30,34)            79.1219         estimate D2E/DX2                !
 ! A194  A(29,30,31)           129.6377         estimate D2E/DX2                !
 ! A195  A(29,30,32)            87.4626         estimate D2E/DX2                !
 ! A196  A(29,30,33)            97.9451         estimate D2E/DX2                !
 ! A197  A(29,30,34)           139.1942         estimate D2E/DX2                !
 ! A198  A(31,30,32)           109.4971         estimate D2E/DX2                !
 ! A199  A(31,30,33)           130.4784         estimate D2E/DX2                !
 ! A200  A(31,30,34)            90.8365         estimate D2E/DX2                !
 ! A201  A(32,30,34)            82.4056         estimate D2E/DX2                !
 ! A202  A(30,31,57)            94.5975         estimate D2E/DX2                !
 ! A203  A(17,33,25)            76.5157         estimate D2E/DX2                !
 ! A204  A(17,33,30)            87.5211         estimate D2E/DX2                !
 ! A205  A(17,33,32)            77.598          estimate D2E/DX2                !
 ! A206  A(17,33,34)           138.5903         estimate D2E/DX2                !
 ! A207  A(17,33,59)           115.1951         estimate D2E/DX2                !
 ! A208  A(25,33,30)            98.3336         estimate D2E/DX2                !
 ! A209  A(25,33,32)           137.4952         estimate D2E/DX2                !
 ! A210  A(25,33,34)            93.2356         estimate D2E/DX2                !
 ! A211  A(25,33,59)           112.4767         estimate D2E/DX2                !
 ! A212  A(30,33,59)           144.7871         estimate D2E/DX2                !
 ! A213  A(32,33,34)            84.5229         estimate D2E/DX2                !
 ! A214  A(32,33,59)           108.8922         estimate D2E/DX2                !
 ! A215  A(34,33,59)           105.8541         estimate D2E/DX2                !
 ! A216  A(17,36,25)            76.1122         estimate D2E/DX2                !
 ! A217  A(17,36,35)           103.3089         estimate D2E/DX2                !
 ! A218  A(17,36,37)           140.1184         estimate D2E/DX2                !
 ! A219  A(17,36,38)            86.0024         estimate D2E/DX2                !
 ! A220  A(25,36,35)           105.4551         estimate D2E/DX2                !
 ! A221  A(25,36,37)            82.176          estimate D2E/DX2                !
 ! A222  A(25,36,38)           137.4573         estimate D2E/DX2                !
 ! A223  A(35,36,37)           114.6216         estimate D2E/DX2                !
 ! A224  A(35,36,38)           116.2004         estimate D2E/DX2                !
 ! A225  A(37,36,38)            88.0            estimate D2E/DX2                !
 ! A226  A(13,37,36)            80.2736         estimate D2E/DX2                !
 ! A227  A(13,37,39)            81.1481         estimate D2E/DX2                !
 ! A228  A(36,37,39)            81.3597         estimate D2E/DX2                !
 ! A229  A(13,38,36)            80.1951         estimate D2E/DX2                !
 ! A230  A(13,38,39)            80.8562         estimate D2E/DX2                !
 ! A231  A(36,38,39)            81.4892         estimate D2E/DX2                !
 ! A232  A(37,39,38)            80.4858         estimate D2E/DX2                !
 ! A233  A(37,39,40)            83.0853         estimate D2E/DX2                !
 ! A234  A(37,39,41)           111.5044         estimate D2E/DX2                !
 ! A235  A(37,39,62)           140.1371         estimate D2E/DX2                !
 ! A236  A(38,39,40)           141.256          estimate D2E/DX2                !
 ! A237  A(38,39,41)           110.858          estimate D2E/DX2                !
 ! A238  A(38,39,62)            82.9179         estimate D2E/DX2                !
 ! A239  A(40,39,41)           107.786          estimate D2E/DX2                !
 ! A240  A(40,39,62)            87.7723         estimate D2E/DX2                !
 ! A241  A(41,39,62)           108.2461         estimate D2E/DX2                !
 ! A242  A(18,40,39)            79.6481         estimate D2E/DX2                !
 ! A243  A(19,42,20)            81.7544         estimate D2E/DX2                !
 ! A244  A(19,42,43)           138.3092         estimate D2E/DX2                !
 ! A245  A(19,42,44)            94.4079         estimate D2E/DX2                !
 ! A246  A(19,42,61)           105.8303         estimate D2E/DX2                !
 ! A247  A(20,42,43)            76.5563         estimate D2E/DX2                !
 ! A248  A(20,42,44)           136.5013         estimate D2E/DX2                !
 ! A249  A(20,42,61)           107.5156         estimate D2E/DX2                !
 ! A250  A(43,42,44)            78.3702         estimate D2E/DX2                !
 ! A251  A(43,42,61)           114.4627         estimate D2E/DX2                !
 ! A252  A(44,42,61)           115.103          estimate D2E/DX2                !
 ! A253  A(6,43,42)             81.2551         estimate D2E/DX2                !
 ! A254  A(6,43,45)             83.1143         estimate D2E/DX2                !
 ! A255  A(42,43,45)            89.5038         estimate D2E/DX2                !
 ! A256  A(6,44,42)             82.6136         estimate D2E/DX2                !
 ! A257  A(6,44,45)             82.6322         estimate D2E/DX2                !
 ! A258  A(42,44,45)            91.9491         estimate D2E/DX2                !
 ! A259  A(3,45,43)             84.3857         estimate D2E/DX2                !
 ! A260  A(3,45,44)            136.7237         estimate D2E/DX2                !
 ! A261  A(3,45,46)             88.2539         estimate D2E/DX2                !
 ! A262  A(3,45,47)            115.1259         estimate D2E/DX2                !
 ! A263  A(43,45,44)            76.9639         estimate D2E/DX2                !
 ! A264  A(43,45,46)           138.6202         estimate D2E/DX2                !
 ! A265  A(43,45,47)           105.5993         estimate D2E/DX2                !
 ! A266  A(43,45,48)           136.4592         estimate D2E/DX2                !
 ! A267  A(44,45,46)            81.0839         estimate D2E/DX2                !
 ! A268  A(44,45,47)           107.4428         estimate D2E/DX2                !
 ! A269  A(44,45,48)           133.0589         estimate D2E/DX2                !
 ! A270  A(46,45,47)           114.3219         estimate D2E/DX2                !
 ! A271  A(47,45,48)            94.632          estimate D2E/DX2                !
 ! A272  A(1,46,45)             80.2304         estimate D2E/DX2                !
 ! A273  A(1,46,48)             80.4794         estimate D2E/DX2                !
 ! A274  A(3,48,21)             91.2652         estimate D2E/DX2                !
 ! A275  A(3,48,23)             81.1428         estimate D2E/DX2                !
 ! A276  A(3,48,46)             86.0205         estimate D2E/DX2                !
 ! A277  A(3,48,49)            136.5414         estimate D2E/DX2                !
 ! A278  A(3,48,50)            119.566          estimate D2E/DX2                !
 ! A279  A(21,48,45)           120.7914         estimate D2E/DX2                !
 ! A280  A(21,48,46)            90.337          estimate D2E/DX2                !
 ! A281  A(21,48,50)           136.6962         estimate D2E/DX2                !
 ! A282  A(23,48,45)           131.6378         estimate D2E/DX2                !
 ! A283  A(23,48,46)           135.6877         estimate D2E/DX2                !
 ! A284  A(23,48,49)            80.7383         estimate D2E/DX2                !
 ! A285  A(23,48,50)           103.8319         estimate D2E/DX2                !
 ! A286  A(45,48,49)           130.669          estimate D2E/DX2                !
 ! A287  A(45,48,50)           102.5022         estimate D2E/DX2                !
 ! A288  A(46,48,49)            80.1116         estimate D2E/DX2                !
 ! A289  A(46,48,50)           119.271          estimate D2E/DX2                !
 ! A290  A(49,48,50)           103.028          estimate D2E/DX2                !
 ! A291  A(14,51,22)           123.8132         estimate D2E/DX2                !
 ! A292  A(14,51,52)            91.6295         estimate D2E/DX2                !
 ! A293  A(14,51,60)           110.8681         estimate D2E/DX2                !
 ! A294  A(22,51,52)           112.704          estimate D2E/DX2                !
 ! A295  A(22,51,54)           159.903          estimate D2E/DX2                !
 ! A296  A(22,51,60)           105.3936         estimate D2E/DX2                !
 ! A297  A(52,51,60)           112.0632         estimate D2E/DX2                !
 ! A298  A(54,51,60)            93.6297         estimate D2E/DX2                !
 ! A299  A(12,52,51)            79.38           estimate D2E/DX2                !
 ! A300  A(12,52,54)            76.0494         estimate D2E/DX2                !
 ! A301  A(14,54,52)            84.1127         estimate D2E/DX2                !
 ! A302  A(14,54,53)           104.7677         estimate D2E/DX2                !
 ! A303  A(14,54,55)           146.0691         estimate D2E/DX2                !
 ! A304  A(14,54,56)            85.7559         estimate D2E/DX2                !
 ! A305  A(14,54,57)           135.6452         estimate D2E/DX2                !
 ! A306  A(51,54,53)            85.8484         estimate D2E/DX2                !
 ! A307  A(51,54,55)           130.2683         estimate D2E/DX2                !
 ! A308  A(51,54,56)           133.5598         estimate D2E/DX2                !
 ! A309  A(52,54,53)           104.927          estimate D2E/DX2                !
 ! A310  A(52,54,55)            83.2758         estimate D2E/DX2                !
 ! A311  A(52,54,56)           145.4393         estimate D2E/DX2                !
 ! A312  A(52,54,57)           132.4418         estimate D2E/DX2                !
 ! A313  A(53,54,55)           108.8883         estimate D2E/DX2                !
 ! A314  A(53,54,56)           109.6005         estimate D2E/DX2                !
 ! A315  A(53,54,57)            90.363          estimate D2E/DX2                !
 ! A316  A(55,54,56)            87.0306         estimate D2E/DX2                !
 ! A317  A(27,55,54)            76.1331         estimate D2E/DX2                !
 ! A318  A(27,55,57)            79.139          estimate D2E/DX2                !
 ! A319  A(27,56,54)            77.5315         estimate D2E/DX2                !
 ! A320  A(27,56,57)            79.9905         estimate D2E/DX2                !
 ! A321  A(31,57,54)           157.3284         estimate D2E/DX2                !
 ! A322  A(31,57,55)           108.2945         estimate D2E/DX2                !
 ! A323  A(31,57,56)           123.4786         estimate D2E/DX2                !
 ! A324  A(31,57,58)           105.384          estimate D2E/DX2                !
 ! A325  A(54,57,58)            95.3055         estimate D2E/DX2                !
 ! A326  A(55,57,56)            92.7166         estimate D2E/DX2                !
 ! A327  A(55,57,58)           113.766          estimate D2E/DX2                !
 ! A328  A(56,57,58)           112.8981         estimate D2E/DX2                !
 ! A329  A(18,62,39)            79.4975         estimate D2E/DX2                !
 ! A330  L(51,54,57,53,-1)     176.2114         estimate D2E/DX2                !
 ! A331  L(51,54,57,53,-2)     177.8573         estimate D2E/DX2                !
 ! D1    D(3,1,2,12)           178.3613         estimate D2E/DX2                !
 ! D2    D(3,1,2,21)            94.3528         estimate D2E/DX2                !
 ! D3    D(4,1,2,12)           -28.4768         estimate D2E/DX2                !
 ! D4    D(4,1,2,21)          -112.4853         estimate D2E/DX2                !
 ! D5    D(5,1,2,12)            40.7745         estimate D2E/DX2                !
 ! D6    D(5,1,2,21)           -43.2339         estimate D2E/DX2                !
 ! D7    D(8,1,2,12)           -99.4627         estimate D2E/DX2                !
 ! D8    D(8,1,2,21)           176.5289         estimate D2E/DX2                !
 ! D9    D(46,1,2,12)          108.5922         estimate D2E/DX2                !
 ! D10   D(46,1,2,21)           24.5838         estimate D2E/DX2                !
 ! D11   D(2,1,3,45)          -174.8888         estimate D2E/DX2                !
 ! D12   D(2,1,3,48)           -96.1419         estimate D2E/DX2                !
 ! D13   D(4,1,3,45)            31.6155         estimate D2E/DX2                !
 ! D14   D(4,1,3,48)           110.3625         estimate D2E/DX2                !
 ! D15   D(5,1,3,45)          -107.3441         estimate D2E/DX2                !
 ! D16   D(5,1,3,48)           -28.5972         estimate D2E/DX2                !
 ! D17   D(8,1,3,45)           101.3209         estimate D2E/DX2                !
 ! D18   D(8,1,3,48)          -179.9321         estimate D2E/DX2                !
 ! D19   D(46,1,3,45)          -38.6615         estimate D2E/DX2                !
 ! D20   D(46,1,3,48)           40.0854         estimate D2E/DX2                !
 ! D21   D(2,1,4,6)           -112.1935         estimate D2E/DX2                !
 ! D22   D(2,1,4,9)            -28.3896         estimate D2E/DX2                !
 ! D23   D(3,1,4,6)             28.265          estimate D2E/DX2                !
 ! D24   D(3,1,4,9)            112.0688         estimate D2E/DX2                !
 ! D25   D(5,1,4,6)            179.9245         estimate D2E/DX2                !
 ! D26   D(5,1,4,9)            -96.2716         estimate D2E/DX2                !
 ! D27   D(8,1,4,6)            -41.0518         estimate D2E/DX2                !
 ! D28   D(8,1,4,9)             42.7521         estimate D2E/DX2                !
 ! D29   D(46,1,4,6)            97.7917         estimate D2E/DX2                !
 ! D30   D(46,1,4,9)          -178.4045         estimate D2E/DX2                !
 ! D31   D(2,1,5,12)           -40.8955         estimate D2E/DX2                !
 ! D32   D(2,1,5,21)            43.0742         estimate D2E/DX2                !
 ! D33   D(3,1,5,12)          -109.3895         estimate D2E/DX2                !
 ! D34   D(3,1,5,21)           -25.4198         estimate D2E/DX2                !
 ! D35   D(4,1,5,12)            98.2798         estimate D2E/DX2                !
 ! D36   D(4,1,5,21)          -177.7506         estimate D2E/DX2                !
 ! D37   D(8,1,5,12)            26.8467         estimate D2E/DX2                !
 ! D38   D(8,1,5,21)           110.8164         estimate D2E/DX2                !
 ! D39   D(46,1,5,12)         -177.9016         estimate D2E/DX2                !
 ! D40   D(46,1,5,21)          -93.932          estimate D2E/DX2                !
 ! D41   D(2,1,8,6)            179.6011         estimate D2E/DX2                !
 ! D42   D(2,1,8,9)             95.9526         estimate D2E/DX2                !
 ! D43   D(3,1,8,6)            -97.2298         estimate D2E/DX2                !
 ! D44   D(3,1,8,9)            179.1218         estimate D2E/DX2                !
 ! D45   D(4,1,8,6)             41.0938         estimate D2E/DX2                !
 ! D46   D(4,1,8,9)            -42.5547         estimate D2E/DX2                !
 ! D47   D(5,1,8,6)            112.9393         estimate D2E/DX2                !
 ! D48   D(5,1,8,9)             29.2908         estimate D2E/DX2                !
 ! D49   D(46,1,8,6)           -30.1741         estimate D2E/DX2                !
 ! D50   D(46,1,8,9)          -113.8226         estimate D2E/DX2                !
 ! D51   D(2,1,46,45)          108.8946         estimate D2E/DX2                !
 ! D52   D(2,1,46,48)           30.1373         estimate D2E/DX2                !
 ! D53   D(3,1,46,45)           38.6374         estimate D2E/DX2                !
 ! D54   D(3,1,46,48)          -40.1199         estimate D2E/DX2                !
 ! D55   D(4,1,46,45)          -99.5714         estimate D2E/DX2                !
 ! D56   D(4,1,46,48)         -178.3287         estimate D2E/DX2                !
 ! D57   D(5,1,46,45)          176.0549         estimate D2E/DX2                !
 ! D58   D(5,1,46,48)           97.2976         estimate D2E/DX2                !
 ! D59   D(8,1,46,45)          -28.5364         estimate D2E/DX2                !
 ! D60   D(8,1,46,48)         -107.2937         estimate D2E/DX2                !
 ! D61   D(1,2,12,5)           -41.3861         estimate D2E/DX2                !
 ! D62   D(1,2,12,11)           28.7772         estimate D2E/DX2                !
 ! D63   D(1,2,12,14)         -178.1228         estimate D2E/DX2                !
 ! D64   D(1,2,12,15)           95.7965         estimate D2E/DX2                !
 ! D65   D(1,2,12,52)         -111.1656         estimate D2E/DX2                !
 ! D66   D(21,2,12,5)           39.9177         estimate D2E/DX2                !
 ! D67   D(21,2,12,11)         110.0811         estimate D2E/DX2                !
 ! D68   D(21,2,12,14)         -96.8189         estimate D2E/DX2                !
 ! D69   D(21,2,12,15)         177.1003         estimate D2E/DX2                !
 ! D70   D(21,2,12,52)         -29.8617         estimate D2E/DX2                !
 ! D71   D(1,2,21,5)            44.3351         estimate D2E/DX2                !
 ! D72   D(1,2,21,22)          151.1837         estimate D2E/DX2                !
 ! D73   D(1,2,21,23)          -99.3917         estimate D2E/DX2                !
 ! D74   D(1,2,21,48)          -49.0789         estimate D2E/DX2                !
 ! D75   D(1,2,21,49)          -25.612          estimate D2E/DX2                !
 ! D76   D(12,2,21,5)          -40.2945         estimate D2E/DX2                !
 ! D77   D(12,2,21,22)          66.554          estimate D2E/DX2                !
 ! D78   D(12,2,21,23)         175.9786         estimate D2E/DX2                !
 ! D79   D(12,2,21,48)        -133.7086         estimate D2E/DX2                !
 ! D80   D(12,2,21,49)        -110.2416         estimate D2E/DX2                !
 ! D81   D(1,3,45,43)          -97.8712         estimate D2E/DX2                !
 ! D82   D(1,3,45,44)          -33.6586         estimate D2E/DX2                !
 ! D83   D(1,3,45,46)           41.3562         estimate D2E/DX2                !
 ! D84   D(1,3,45,47)          157.5126         estimate D2E/DX2                !
 ! D85   D(1,3,48,21)           48.2586         estimate D2E/DX2                !
 ! D86   D(1,3,48,23)           95.4656         estimate D2E/DX2                !
 ! D87   D(1,3,48,46)          -41.9914         estimate D2E/DX2                !
 ! D88   D(1,3,48,49)           29.1227         estimate D2E/DX2                !
 ! D89   D(1,3,48,50)         -163.5944         estimate D2E/DX2                !
 ! D90   D(1,4,6,7)            178.285          estimate D2E/DX2                !
 ! D91   D(1,4,6,8)             40.7468         estimate D2E/DX2                !
 ! D92   D(1,4,6,16)           107.413          estimate D2E/DX2                !
 ! D93   D(1,4,6,43)           -36.6876         estimate D2E/DX2                !
 ! D94   D(1,4,6,44)           -95.5315         estimate D2E/DX2                !
 ! D95   D(9,4,6,7)             96.4473         estimate D2E/DX2                !
 ! D96   D(9,4,6,8)            -41.0909         estimate D2E/DX2                !
 ! D97   D(9,4,6,16)            25.5753         estimate D2E/DX2                !
 ! D98   D(9,4,6,43)          -118.5252         estimate D2E/DX2                !
 ! D99   D(9,4,6,44)          -177.3691         estimate D2E/DX2                !
 ! D100  D(1,4,9,8)            -41.9072         estimate D2E/DX2                !
 ! D101  D(1,4,9,10)          -178.7593         estimate D2E/DX2                !
 ! D102  D(1,4,9,11)            95.9382         estimate D2E/DX2                !
 ! D103  D(1,4,9,15)            28.8148         estimate D2E/DX2                !
 ! D104  D(1,4,9,26)          -110.0755         estimate D2E/DX2                !
 ! D105  D(6,4,9,8)             40.5935         estimate D2E/DX2                !
 ! D106  D(6,4,9,10)           -96.2586         estimate D2E/DX2                !
 ! D107  D(6,4,9,11)           178.4389         estimate D2E/DX2                !
 ! D108  D(6,4,9,15)           111.3155         estimate D2E/DX2                !
 ! D109  D(6,4,9,26)           -27.5748         estimate D2E/DX2                !
 ! D110  D(1,5,12,2)            41.138          estimate D2E/DX2                !
 ! D111  D(1,5,12,11)          -94.9199         estimate D2E/DX2                !
 ! D112  D(1,5,12,14)          111.2139         estimate D2E/DX2                !
 ! D113  D(1,5,12,15)          -26.3799         estimate D2E/DX2                !
 ! D114  D(1,5,12,52)         -179.813          estimate D2E/DX2                !
 ! D115  D(21,5,12,2)          -39.7208         estimate D2E/DX2                !
 ! D116  D(21,5,12,11)        -175.7787         estimate D2E/DX2                !
 ! D117  D(21,5,12,14)          30.355          estimate D2E/DX2                !
 ! D118  D(21,5,12,15)        -107.2388         estimate D2E/DX2                !
 ! D119  D(21,5,12,52)          99.3282         estimate D2E/DX2                !
 ! D120  D(1,5,21,2)           -44.1184         estimate D2E/DX2                !
 ! D121  D(1,5,21,22)         -167.4791         estimate D2E/DX2                !
 ! D122  D(1,5,21,23)           24.9745         estimate D2E/DX2                !
 ! D123  D(1,5,21,48)           48.8659         estimate D2E/DX2                !
 ! D124  D(1,5,21,49)           98.8923         estimate D2E/DX2                !
 ! D125  D(12,5,21,2)           40.4087         estimate D2E/DX2                !
 ! D126  D(12,5,21,22)         -82.952          estimate D2E/DX2                !
 ! D127  D(12,5,21,23)         109.5015         estimate D2E/DX2                !
 ! D128  D(12,5,21,48)         133.3929         estimate D2E/DX2                !
 ! D129  D(12,5,21,49)        -176.5806         estimate D2E/DX2                !
 ! D130  D(4,6,7,13)           -96.0436         estimate D2E/DX2                !
 ! D131  D(4,6,7,18)          -178.252          estimate D2E/DX2                !
 ! D132  D(8,6,7,13)           -24.0247         estimate D2E/DX2                !
 ! D133  D(8,6,7,18)          -106.2331         estimate D2E/DX2                !
 ! D134  D(16,6,7,13)           41.434          estimate D2E/DX2                !
 ! D135  D(16,6,7,18)          -40.7744         estimate D2E/DX2                !
 ! D136  D(43,6,7,13)          115.5058         estimate D2E/DX2                !
 ! D137  D(43,6,7,18)           33.2974         estimate D2E/DX2                !
 ! D138  D(44,6,7,13)         -178.1446         estimate D2E/DX2                !
 ! D139  D(44,6,7,18)           99.6469         estimate D2E/DX2                !
 ! D140  D(4,6,8,1)            -41.1379         estimate D2E/DX2                !
 ! D141  D(4,6,8,9)             40.9501         estimate D2E/DX2                !
 ! D142  D(7,6,8,1)           -113.8835         estimate D2E/DX2                !
 ! D143  D(7,6,8,9)            -31.7955         estimate D2E/DX2                !
 ! D144  D(16,6,8,1)          -179.8688         estimate D2E/DX2                !
 ! D145  D(16,6,8,9)           -97.7808         estimate D2E/DX2                !
 ! D146  D(43,6,8,1)            95.8888         estimate D2E/DX2                !
 ! D147  D(43,6,8,9)           177.9769         estimate D2E/DX2                !
 ! D148  D(44,6,8,1)            29.289          estimate D2E/DX2                !
 ! D149  D(44,6,8,9)           111.3771         estimate D2E/DX2                !
 ! D150  D(4,6,16,13)           30.5425         estimate D2E/DX2                !
 ! D151  D(4,6,16,18)          113.465          estimate D2E/DX2                !
 ! D152  D(7,6,16,13)          -41.3983         estimate D2E/DX2                !
 ! D153  D(7,6,16,18)           41.5242         estimate D2E/DX2                !
 ! D154  D(8,6,16,13)           98.0761         estimate D2E/DX2                !
 ! D155  D(8,6,16,18)         -179.0014         estimate D2E/DX2                !
 ! D156  D(43,6,16,13)        -173.7487         estimate D2E/DX2                !
 ! D157  D(43,6,16,18)         -90.8263         estimate D2E/DX2                !
 ! D158  D(44,6,16,13)        -114.0279         estimate D2E/DX2                !
 ! D159  D(44,6,16,18)         -31.1054         estimate D2E/DX2                !
 ! D160  D(4,6,43,42)         -105.8096         estimate D2E/DX2                !
 ! D161  D(4,6,43,45)          -15.251          estimate D2E/DX2                !
 ! D162  D(7,6,43,42)           25.9601         estimate D2E/DX2                !
 ! D163  D(7,6,43,45)          116.5187         estimate D2E/DX2                !
 ! D164  D(8,6,43,42)          178.7826         estimate D2E/DX2                !
 ! D165  D(8,6,43,45)          -90.6588         estimate D2E/DX2                !
 ! D166  D(16,6,43,42)          98.827          estimate D2E/DX2                !
 ! D167  D(16,6,43,45)        -170.6144         estimate D2E/DX2                !
 ! D168  D(44,6,43,42)         -44.7333         estimate D2E/DX2                !
 ! D169  D(44,6,43,45)          45.8253         estimate D2E/DX2                !
 ! D170  D(4,6,44,42)         -171.165          estimate D2E/DX2                !
 ! D171  D(4,6,44,45)           95.8919         estimate D2E/DX2                !
 ! D172  D(7,6,44,42)          -86.7236         estimate D2E/DX2                !
 ! D173  D(7,6,44,45)         -179.6666         estimate D2E/DX2                !
 ! D174  D(8,6,44,42)          118.2799         estimate D2E/DX2                !
 ! D175  D(8,6,44,45)           25.3368         estimate D2E/DX2                !
 ! D176  D(16,6,44,42)         -15.6277         estimate D2E/DX2                !
 ! D177  D(16,6,44,45)        -108.5708         estimate D2E/DX2                !
 ! D178  D(43,6,44,42)          46.9327         estimate D2E/DX2                !
 ! D179  D(43,6,44,45)         -46.0104         estimate D2E/DX2                !
 ! D180  D(6,7,13,10)           95.9638         estimate D2E/DX2                !
 ! D181  D(6,7,13,16)          -41.3953         estimate D2E/DX2                !
 ! D182  D(6,7,13,26)           26.4534         estimate D2E/DX2                !
 ! D183  D(6,7,13,37)         -178.4913         estimate D2E/DX2                !
 ! D184  D(6,7,13,38)         -111.2096         estimate D2E/DX2                !
 ! D185  D(18,7,13,10)         178.2463         estimate D2E/DX2                !
 ! D186  D(18,7,13,16)          40.8872         estimate D2E/DX2                !
 ! D187  D(18,7,13,26)         108.7359         estimate D2E/DX2                !
 ! D188  D(18,7,13,37)         -96.2088         estimate D2E/DX2                !
 ! D189  D(18,7,13,38)         -28.9272         estimate D2E/DX2                !
 ! D190  D(6,7,18,16)           41.6111         estimate D2E/DX2                !
 ! D191  D(6,7,18,19)          -99.443          estimate D2E/DX2                !
 ! D192  D(6,7,18,20)          -35.4564         estimate D2E/DX2                !
 ! D193  D(6,7,18,40)          179.2472         estimate D2E/DX2                !
 ! D194  D(6,7,18,62)          114.2838         estimate D2E/DX2                !
 ! D195  D(13,7,18,16)         -41.7664         estimate D2E/DX2                !
 ! D196  D(13,7,18,19)         177.1795         estimate D2E/DX2                !
 ! D197  D(13,7,18,20)        -118.8339         estimate D2E/DX2                !
 ! D198  D(13,7,18,40)          95.8697         estimate D2E/DX2                !
 ! D199  D(13,7,18,62)          30.9063         estimate D2E/DX2                !
 ! D200  D(1,8,9,4)             42.3468         estimate D2E/DX2                !
 ! D201  D(1,8,9,10)           112.0509         estimate D2E/DX2                !
 ! D202  D(1,8,9,11)           -28.7093         estimate D2E/DX2                !
 ! D203  D(1,8,9,15)           -95.4905         estimate D2E/DX2                !
 ! D204  D(1,8,9,26)          -179.3943         estimate D2E/DX2                !
 ! D205  D(6,8,9,4)            -40.71           estimate D2E/DX2                !
 ! D206  D(6,8,9,10)            28.9942         estimate D2E/DX2                !
 ! D207  D(6,8,9,11)          -111.7661         estimate D2E/DX2                !
 ! D208  D(6,8,9,15)          -178.5473         estimate D2E/DX2                !
 ! D209  D(6,8,9,26)            97.5489         estimate D2E/DX2                !
 ! D210  D(4,9,10,13)           96.9633         estimate D2E/DX2                !
 ! D211  D(4,9,10,24)          179.4907         estimate D2E/DX2                !
 ! D212  D(8,9,10,13)           27.6625         estimate D2E/DX2                !
 ! D213  D(8,9,10,24)          110.1899         estimate D2E/DX2                !
 ! D214  D(11,9,10,13)        -178.9506         estimate D2E/DX2                !
 ! D215  D(11,9,10,24)         -96.4232         estimate D2E/DX2                !
 ! D216  D(15,9,10,13)        -111.0523         estimate D2E/DX2                !
 ! D217  D(15,9,10,24)         -28.5248         estimate D2E/DX2                !
 ! D218  D(26,9,10,13)         -41.0557         estimate D2E/DX2                !
 ! D219  D(26,9,10,24)          41.4717         estimate D2E/DX2                !
 ! D220  D(4,9,11,12)          -97.4634         estimate D2E/DX2                !
 ! D221  D(4,9,11,27)          179.2405         estimate D2E/DX2                !
 ! D222  D(8,9,11,12)          -27.3415         estimate D2E/DX2                !
 ! D223  D(8,9,11,27)         -110.6376         estimate D2E/DX2                !
 ! D224  D(10,9,11,12)         179.9746         estimate D2E/DX2                !
 ! D225  D(10,9,11,27)          96.6785         estimate D2E/DX2                !
 ! D226  D(15,9,11,12)          41.0289         estimate D2E/DX2                !
 ! D227  D(15,9,11,27)         -42.2673         estimate D2E/DX2                !
 ! D228  D(26,9,11,12)         108.9117         estimate D2E/DX2                !
 ! D229  D(26,9,11,27)          25.6155         estimate D2E/DX2                !
 ! D230  D(4,9,15,12)           27.684          estimate D2E/DX2                !
 ! D231  D(4,9,15,27)          111.0362         estimate D2E/DX2                !
 ! D232  D(8,9,15,12)           97.5701         estimate D2E/DX2                !
 ! D233  D(8,9,15,27)         -179.0777         estimate D2E/DX2                !
 ! D234  D(10,9,15,12)        -111.106          estimate D2E/DX2                !
 ! D235  D(10,9,15,27)         -27.7538         estimate D2E/DX2                !
 ! D236  D(11,9,15,12)         -41.1341         estimate D2E/DX2                !
 ! D237  D(11,9,15,27)          42.218          estimate D2E/DX2                !
 ! D238  D(26,9,15,12)         179.6666         estimate D2E/DX2                !
 ! D239  D(26,9,15,27)         -96.9812         estimate D2E/DX2                !
 ! D240  D(4,9,26,13)          -27.6698         estimate D2E/DX2                !
 ! D241  D(4,9,26,24)         -110.6796         estimate D2E/DX2                !
 ! D242  D(8,9,26,13)          -95.6943         estimate D2E/DX2                !
 ! D243  D(8,9,26,24)         -178.7041         estimate D2E/DX2                !
 ! D244  D(10,9,26,13)          41.4203         estimate D2E/DX2                !
 ! D245  D(10,9,26,24)         -41.5894         estimate D2E/DX2                !
 ! D246  D(11,9,26,13)         113.842          estimate D2E/DX2                !
 ! D247  D(11,9,26,24)          30.8322         estimate D2E/DX2                !
 ! D248  D(15,9,26,13)        -179.7836         estimate D2E/DX2                !
 ! D249  D(15,9,26,24)          97.2067         estimate D2E/DX2                !
 ! D250  D(9,10,13,7)          -97.7713         estimate D2E/DX2                !
 ! D251  D(9,10,13,16)         -27.6412         estimate D2E/DX2                !
 ! D252  D(9,10,13,26)          41.4327         estimate D2E/DX2                !
 ! D253  D(9,10,13,37)         179.4917         estimate D2E/DX2                !
 ! D254  D(9,10,13,38)         108.888          estimate D2E/DX2                !
 ! D255  D(24,10,13,7)         179.7562         estimate D2E/DX2                !
 ! D256  D(24,10,13,16)       -110.1138         estimate D2E/DX2                !
 ! D257  D(24,10,13,26)        -41.0399         estimate D2E/DX2                !
 ! D258  D(24,10,13,37)         97.0191         estimate D2E/DX2                !
 ! D259  D(24,10,13,38)         26.4155         estimate D2E/DX2                !
 ! D260  D(9,10,24,17)        -120.7685         estimate D2E/DX2                !
 ! D261  D(9,10,24,25)        -177.867          estimate D2E/DX2                !
 ! D262  D(9,10,24,26)         -42.0252         estimate D2E/DX2                !
 ! D263  D(9,10,24,28)          95.2901         estimate D2E/DX2                !
 ! D264  D(9,10,24,29)          26.3461         estimate D2E/DX2                !
 ! D265  D(13,10,24,17)        -37.5372         estimate D2E/DX2                !
 ! D266  D(13,10,24,25)        -94.6357         estimate D2E/DX2                !
 ! D267  D(13,10,24,26)         41.206          estimate D2E/DX2                !
 ! D268  D(13,10,24,28)        178.5213         estimate D2E/DX2                !
 ! D269  D(13,10,24,29)        109.5774         estimate D2E/DX2                !
 ! D270  D(9,11,12,2)           25.511          estimate D2E/DX2                !
 ! D271  D(9,11,12,5)           95.2029         estimate D2E/DX2                !
 ! D272  D(9,11,12,14)        -112.9014         estimate D2E/DX2                !
 ! D273  D(9,11,12,15)         -41.5704         estimate D2E/DX2                !
 ! D274  D(9,11,12,52)         178.8618         estimate D2E/DX2                !
 ! D275  D(27,11,12,2)         109.3641         estimate D2E/DX2                !
 ! D276  D(27,11,12,5)         179.056          estimate D2E/DX2                !
 ! D277  D(27,11,12,14)        -29.0483         estimate D2E/DX2                !
 ! D278  D(27,11,12,15)         42.2827         estimate D2E/DX2                !
 ! D279  D(27,11,12,52)        -97.2851         estimate D2E/DX2                !
 ! D280  D(9,11,27,15)          42.6451         estimate D2E/DX2                !
 ! D281  D(9,11,27,28)         -94.6597         estimate D2E/DX2                !
 ! D282  D(9,11,27,29)         -23.9888         estimate D2E/DX2                !
 ! D283  D(9,11,27,30)         -92.0086         estimate D2E/DX2                !
 ! D284  D(9,11,27,55)        -178.8318         estimate D2E/DX2                !
 ! D285  D(9,11,27,56)         111.9881         estimate D2E/DX2                !
 ! D286  D(12,11,27,15)        -42.0982         estimate D2E/DX2                !
 ! D287  D(12,11,27,28)       -179.403          estimate D2E/DX2                !
 ! D288  D(12,11,27,29)       -108.7321         estimate D2E/DX2                !
 ! D289  D(12,11,27,30)       -176.752          estimate D2E/DX2                !
 ! D290  D(12,11,27,55)         96.4249         estimate D2E/DX2                !
 ! D291  D(12,11,27,56)         27.2447         estimate D2E/DX2                !
 ! D292  D(2,12,14,51)         102.9347         estimate D2E/DX2                !
 ! D293  D(2,12,14,54)        -174.7121         estimate D2E/DX2                !
 ! D294  D(5,12,14,51)          33.3951         estimate D2E/DX2                !
 ! D295  D(5,12,14,54)         115.7483         estimate D2E/DX2                !
 ! D296  D(11,12,14,51)       -106.3696         estimate D2E/DX2                !
 ! D297  D(11,12,14,54)        -24.0164         estimate D2E/DX2                !
 ! D298  D(15,12,14,51)       -176.0214         estimate D2E/DX2                !
 ! D299  D(15,12,14,54)        -93.6682         estimate D2E/DX2                !
 ! D300  D(52,12,14,51)        -36.7122         estimate D2E/DX2                !
 ! D301  D(52,12,14,54)         45.641          estimate D2E/DX2                !
 ! D302  D(2,12,15,9)          -95.393          estimate D2E/DX2                !
 ! D303  D(2,12,15,27)        -179.1866         estimate D2E/DX2                !
 ! D304  D(5,12,15,9)          -27.6852         estimate D2E/DX2                !
 ! D305  D(5,12,15,27)        -111.4788         estimate D2E/DX2                !
 ! D306  D(11,12,15,9)          41.5719         estimate D2E/DX2                !
 ! D307  D(11,12,15,27)        -42.2216         estimate D2E/DX2                !
 ! D308  D(14,12,15,9)        -178.4034         estimate D2E/DX2                !
 ! D309  D(14,12,15,27)         97.8031         estimate D2E/DX2                !
 ! D310  D(52,12,15,9)         111.9207         estimate D2E/DX2                !
 ! D311  D(52,12,15,27)         28.1271         estimate D2E/DX2                !
 ! D312  D(2,12,52,51)         -30.4365         estimate D2E/DX2                !
 ! D313  D(2,12,52,54)        -113.3424         estimate D2E/DX2                !
 ! D314  D(5,12,52,51)         -99.4689         estimate D2E/DX2                !
 ! D315  D(5,12,52,54)         177.6251         estimate D2E/DX2                !
 ! D316  D(11,12,52,51)        177.7818         estimate D2E/DX2                !
 ! D317  D(11,12,52,54)         94.8758         estimate D2E/DX2                !
 ! D318  D(14,12,52,51)         37.3354         estimate D2E/DX2                !
 ! D319  D(14,12,52,54)        -45.5706         estimate D2E/DX2                !
 ! D320  D(15,12,52,51)        108.8059         estimate D2E/DX2                !
 ! D321  D(15,12,52,54)         25.8999         estimate D2E/DX2                !
 ! D322  D(7,13,16,6)           41.6091         estimate D2E/DX2                !
 ! D323  D(7,13,16,18)         -41.6693         estimate D2E/DX2                !
 ! D324  D(10,13,16,6)         -29.0423         estimate D2E/DX2                !
 ! D325  D(10,13,16,18)       -112.3208         estimate D2E/DX2                !
 ! D326  D(26,13,16,6)         -98.1411         estimate D2E/DX2                !
 ! D327  D(26,13,16,18)        178.5805         estimate D2E/DX2                !
 ! D328  D(37,13,16,6)         111.6864         estimate D2E/DX2                !
 ! D329  D(37,13,16,18)         28.4079         estimate D2E/DX2                !
 ! D330  D(38,13,16,6)        -179.601          estimate D2E/DX2                !
 ! D331  D(38,13,16,18)         97.1205         estimate D2E/DX2                !
 ! D332  D(7,13,26,9)           28.452          estimate D2E/DX2                !
 ! D333  D(7,13,26,24)         111.0519         estimate D2E/DX2                !
 ! D334  D(10,13,26,9)         -41.483          estimate D2E/DX2                !
 ! D335  D(10,13,26,24)         41.1169         estimate D2E/DX2                !
 ! D336  D(16,13,26,9)          96.2532         estimate D2E/DX2                !
 ! D337  D(16,13,26,24)        178.8531         estimate D2E/DX2                !
 ! D338  D(37,13,26,9)        -114.618          estimate D2E/DX2                !
 ! D339  D(37,13,26,24)        -32.0181         estimate D2E/DX2                !
 ! D340  D(38,13,26,9)        -179.925          estimate D2E/DX2                !
 ! D341  D(38,13,26,24)        -97.3251         estimate D2E/DX2                !
 ! D342  D(7,13,37,36)         178.2653         estimate D2E/DX2                !
 ! D343  D(7,13,37,39)          95.5942         estimate D2E/DX2                !
 ! D344  D(10,13,37,36)        -98.4174         estimate D2E/DX2                !
 ! D345  D(10,13,37,39)        178.9115         estimate D2E/DX2                !
 ! D346  D(16,13,37,36)        108.502          estimate D2E/DX2                !
 ! D347  D(16,13,37,39)         25.8309         estimate D2E/DX2                !
 ! D348  D(26,13,37,36)        -26.4718         estimate D2E/DX2                !
 ! D349  D(26,13,37,39)       -109.1429         estimate D2E/DX2                !
 ! D350  D(38,13,37,36)         38.9046         estimate D2E/DX2                !
 ! D351  D(38,13,37,39)        -43.7665         estimate D2E/DX2                !
 ! D352  D(7,13,38,36)        -107.0662         estimate D2E/DX2                !
 ! D353  D(7,13,38,39)         -24.2069         estimate D2E/DX2                !
 ! D354  D(10,13,38,36)         33.1896         estimate D2E/DX2                !
 ! D355  D(10,13,38,39)        116.0488         estimate D2E/DX2                !
 ! D356  D(16,13,38,36)       -176.4179         estimate D2E/DX2                !
 ! D357  D(16,13,38,39)        -93.5586         estimate D2E/DX2                !
 ! D358  D(26,13,38,36)        101.0385         estimate D2E/DX2                !
 ! D359  D(26,13,38,39)       -176.1023         estimate D2E/DX2                !
 ! D360  D(37,13,38,36)        -39.1057         estimate D2E/DX2                !
 ! D361  D(37,13,38,39)         43.7536         estimate D2E/DX2                !
 ! D362  D(12,14,51,22)        -77.0943         estimate D2E/DX2                !
 ! D363  D(12,14,51,52)         41.8387         estimate D2E/DX2                !
 ! D364  D(12,14,51,60)        156.2325         estimate D2E/DX2                !
 ! D365  D(12,14,54,52)        -47.8882         estimate D2E/DX2                !
 ! D366  D(12,14,54,53)       -151.8112         estimate D2E/DX2                !
 ! D367  D(12,14,54,55)         20.7563         estimate D2E/DX2                !
 ! D368  D(12,14,54,56)         99.0225         estimate D2E/DX2                !
 ! D369  D(12,14,54,57)        101.9892         estimate D2E/DX2                !
 ! D370  D(9,15,27,11)         -42.6638         estimate D2E/DX2                !
 ! D371  D(9,15,27,28)          27.1628         estimate D2E/DX2                !
 ! D372  D(9,15,27,29)          94.4186         estimate D2E/DX2                !
 ! D373  D(9,15,27,30)          94.6974         estimate D2E/DX2                !
 ! D374  D(9,15,27,55)        -112.4572         estimate D2E/DX2                !
 ! D375  D(9,15,27,56)         178.0647         estimate D2E/DX2                !
 ! D376  D(12,15,27,11)         42.2126         estimate D2E/DX2                !
 ! D377  D(12,15,27,28)        112.0391         estimate D2E/DX2                !
 ! D378  D(12,15,27,29)        179.2949         estimate D2E/DX2                !
 ! D379  D(12,15,27,30)        179.5737         estimate D2E/DX2                !
 ! D380  D(12,15,27,55)        -27.5809         estimate D2E/DX2                !
 ! D381  D(12,15,27,56)        -97.059          estimate D2E/DX2                !
 ! D382  D(6,16,18,7)          -41.7118         estimate D2E/DX2                !
 ! D383  D(6,16,18,19)          25.1105         estimate D2E/DX2                !
 ! D384  D(6,16,18,20)          95.4649         estimate D2E/DX2                !
 ! D385  D(6,16,18,40)        -117.0143         estimate D2E/DX2                !
 ! D386  D(6,16,18,62)        -179.7155         estimate D2E/DX2                !
 ! D387  D(13,16,18,7)          41.6451         estimate D2E/DX2                !
 ! D388  D(13,16,18,19)        108.4674         estimate D2E/DX2                !
 ! D389  D(13,16,18,20)        178.8218         estimate D2E/DX2                !
 ! D390  D(13,16,18,40)        -33.6574         estimate D2E/DX2                !
 ! D391  D(13,16,18,62)        -96.3586         estimate D2E/DX2                !
 ! D392  D(33,17,24,10)       -105.7746         estimate D2E/DX2                !
 ! D393  D(33,17,24,25)        -45.9768         estimate D2E/DX2                !
 ! D394  D(33,17,24,26)        177.659          estimate D2E/DX2                !
 ! D395  D(33,17,24,28)         25.1077         estimate D2E/DX2                !
 ! D396  D(33,17,24,29)         96.9674         estimate D2E/DX2                !
 ! D397  D(36,17,24,10)        -12.7218         estimate D2E/DX2                !
 ! D398  D(36,17,24,25)         47.076          estimate D2E/DX2                !
 ! D399  D(36,17,24,26)        -89.2882         estimate D2E/DX2                !
 ! D400  D(36,17,24,28)        118.1605         estimate D2E/DX2                !
 ! D401  D(36,17,24,29)       -169.9798         estimate D2E/DX2                !
 ! D402  D(24,17,33,25)         48.7564         estimate D2E/DX2                !
 ! D403  D(24,17,33,30)        -50.4253         estimate D2E/DX2                !
 ! D404  D(24,17,33,32)        -97.2359         estimate D2E/DX2                !
 ! D405  D(24,17,33,34)        -30.6325         estimate D2E/DX2                !
 ! D406  D(24,17,33,59)        157.5203         estimate D2E/DX2                !
 ! D407  D(36,17,33,25)        -33.8223         estimate D2E/DX2                !
 ! D408  D(36,17,33,30)       -133.004          estimate D2E/DX2                !
 ! D409  D(36,17,33,32)       -179.8146         estimate D2E/DX2                !
 ! D410  D(36,17,33,34)       -113.2112         estimate D2E/DX2                !
 ! D411  D(36,17,33,59)         74.9416         estimate D2E/DX2                !
 ! D412  D(24,17,36,25)        -48.3245         estimate D2E/DX2                !
 ! D413  D(24,17,36,35)       -151.2449         estimate D2E/DX2                !
 ! D414  D(24,17,36,37)         10.7049         estimate D2E/DX2                !
 ! D415  D(24,17,36,38)         92.7614         estimate D2E/DX2                !
 ! D416  D(33,17,36,25)         32.8852         estimate D2E/DX2                !
 ! D417  D(33,17,36,35)        -70.0351         estimate D2E/DX2                !
 ! D418  D(33,17,36,37)         91.9147         estimate D2E/DX2                !
 ! D419  D(33,17,36,38)        173.9712         estimate D2E/DX2                !
 ! D420  D(7,18,19,42)          95.7773         estimate D2E/DX2                !
 ! D421  D(16,18,19,42)         28.2336         estimate D2E/DX2                !
 ! D422  D(20,18,19,42)        -44.7103         estimate D2E/DX2                !
 ! D423  D(40,18,19,42)       -177.3616         estimate D2E/DX2                !
 ! D424  D(62,18,19,42)       -116.5405         estimate D2E/DX2                !
 ! D425  D(7,18,20,42)         -25.413          estimate D2E/DX2                !
 ! D426  D(16,18,20,42)       -100.8683         estimate D2E/DX2                !
 ! D427  D(19,18,20,42)         38.9068         estimate D2E/DX2                !
 ! D428  D(40,18,20,42)        107.7628         estimate D2E/DX2                !
 ! D429  D(62,18,20,42)        175.2354         estimate D2E/DX2                !
 ! D430  D(7,18,40,39)         -98.2514         estimate D2E/DX2                !
 ! D431  D(16,18,40,39)        -24.097          estimate D2E/DX2                !
 ! D432  D(19,18,40,39)       -179.2942         estimate D2E/DX2                !
 ! D433  D(20,18,40,39)        112.3674         estimate D2E/DX2                !
 ! D434  D(62,18,40,39)         41.247          estimate D2E/DX2                !
 ! D435  D(7,18,62,39)          27.1031         estimate D2E/DX2                !
[...]
 0.00077659,0.00031947,0.00020233,-0.00036799,0.00001042,0.00007313,-0.
 00012263,0.23046002,-0.00036019,0.00017003,-0.00033135,0.00018374,-0.0
 0034230,0.00025489,0.00025988,0.00005174,0.00009966,-0.00004053,-0.000
 03044,-0.00002088,-0.00009682,-0.00021054,0.00027507,-0.00001245,0.000
 00775,-0.00002705,-0.00001526,0.00000910,-0.00000340,-0.00002692,0.000
 06474,0.00004671,0.00001449,-0.00011043,0.00030442,-0.00001654,-0.0000
 0571,-0.00002444,-0.00006447,-0.00033654,-0.00022764,0.00146886,0.0010
 0603,-0.00217583,0.00004954,-0.00002721,0.00002089,0.00341445,0.000717
 47,0.00257336,-0.00000699,-0.00005827,0.00011636,-0.00001049,0.0000122
 9,0.00000219,0.00000709,0.00000518,-0.00000202,0.00000635,-0.00000780,
 0.00001699,-0.00000041,-0.00000019,0.00001779,0.00000925,-0.00000156,-
 0.00001035,-0.00091865,0.00114751,0.00011668,-0.00284090,0.00079190,-0
 .00133315,0.00036078,-0.00021297,-0.00021920,0.00002402,0.00001638,0.0
 0002812,-0.00000913,0.00001157,-0.00001071,-0.00001078,0.00001781,-0.0
 0002889,-0.00060982,-0.00018554,0.00035996,0.00004720,-0.00001538,0.00
 003210,-0.00000716,-0.00000138,-0.00000797,0.00005590,0.00004528,0.000
 01585,-0.00000882,-0.00000586,-0.00003531,0.00000459,-0.00002220,0.000
 01099,-0.00000854,-0.00002101,-0.00006297,-0.00002477,0.00002968,0.000
 00149,0.00001481,-0.00001785,0.00002371,-0.00007033,-0.00000281,0.0000
 1457,0.00000142,-0.00001347,-0.00001769,0.00001677,0.00002007,0.000001
 81,-0.00002259,0.00002991,-0.00003281,0.00000243,0.00000523,0.00000295
 ,0.00001152,-0.00002145,0.00002529,-0.00003980,-0.00000886,0.00000031,
 0.00001787,0.00004030,-0.00000235,0.00000795,-0.00001612,-0.00001808,-
 0.00007860,-0.00012637,0.00011507,0.00012099,-0.00007957,0.00002067,0.
 00005770,0.00002018,-0.00005127,-0.00032344,0.00003628,-0.00005859,0.0
 0026738,0.00005805,-0.00037669,0.00004306,-0.00002250,-0.00001450,0.05
 575906,-0.02756497,0.00888189,-0.00313780,0.00341999,0.00391093,-0.004
 50336,-0.00157628,0.00234841,0.00475520,-0.00179614,-0.00153133,-0.000
 06982,-0.00034001,-0.00028002,0.00028114,-0.00004164,0.00015708,0.0000
 7905,0.00001433,0.00054474,-0.00038803,0.00004321,-0.00001082,0.000009
 96,-0.00001762,0.00003779,-0.05366612,0.02544119,0.00037786,-0.0002431
 9,0.00013869,-0.00017137,-0.00029764,-0.00046570,0.00001093,-0.0000814
 8,-0.00020215,0.00008068,0.00005667,0.00000817,-0.00022202,0.00057979,
 -0.00009862,0.00008196,-0.00002007,0.00001083,0.00002507,-0.00000591,0
 .00000500,0.00004147,0.00006603,-0.00003003,-0.00005133,0.00022623,-0.
 00043011,0.00003187,-0.00000842,0.00006085,-0.00011926,0.00031978,0.00
 000115,-0.00030602,-0.00183301,0.00265316,-0.00007495,0.00004487,-0.00
 001352,0.00219141,0.00258005,-0.00006167,-0.00011485,-0.00054927,-0.00
 047794,0.00002487,-0.00001670,0.00000442,-0.00002077,-0.00001097,0.000
 00635,-0.00000729,0.00000902,-0.00002890,0.00000035,-0.00001192,-0.000
 00877,-0.00001456,0.00000333,0.00002360,-0.00200292,-0.00040630,0.0017
 1378,0.00592205,0.00051002,0.00002706,0.00009551,-0.00054363,-0.000031
 91,-0.00000538,0.00001725,-0.00004714,0.00000894,-0.00001585,0.0000039
 6,0.00000772,-0.00002697,0.00000766,0.00092753,0.00027131,-0.00060504,
 -0.00005613,0.00002157,0.00001112,-0.00004487,0.00005592,0.00002276,-0
 .00004296,-0.00003899,0.00004917,0.00000841,-0.00001599,0.00005213,-0.
 00001505,0.00003167,-0.00002786,0.00003756,0.00003269,0.00008486,0.000
 03108,-0.00005408,-0.00001857,-0.00001781,0.00002469,-0.00003057,0.000
 09749,0.00000282,-0.00001853,-0.00000498,0.00001558,0.00002016,-0.0000
 2546,-0.00002538,-0.00000253,0.00003422,-0.00003503,0.00004141,-0.0000
 0289,-0.00001005,-0.00000323,-0.00001463,0.00002711,-0.00003213,0.0000
 3921,0.00003676,-0.00005202,-0.00003476,-0.00005916,-0.00000041,-0.000
 05176,0.00005884,0.00004365,0.00022577,-0.00011675,-0.00000860,-0.0001
 4067,0.00018178,0.00002982,-0.00008780,-0.00003305,0.00002675,-0.00006
 295,0.00001211,0.00008607,-0.00028007,0.00017253,0.00009069,-0.0000627
 8,0.00001161,-0.00004241,-0.04250901,0.00800640,-0.02055832,-0.0023988
 2,0.00370341,-0.00026227,0.00648750,0.00083411,-0.00360549,-0.00919310
 ,-0.00059223,0.00072665,-0.00010748,0.00046420,-0.00001409,0.00000643,
 -0.00027065,-0.00042548,0.00000624,0.00048360,-0.00058968,0.00057771,-
 0.00011322,0.00008677,-0.00001315,0.00002403,-0.00004498,0.04094917,-0
 .01342969,0.02215161,-0.00024314,0.00050803,-0.00060541,-0.00001818,-0
 .00000854,0.00000466,0.00027014,-0.00017429,0.00034696,0.00013262,0.00
 013379,-0.00008690,-0.00002735,-0.00000212,0.00002048,-0.00097856,-0.0
 0154215,0.00193705,0.00069610,-0.00017426,-0.00041407,0.00008552,-0.00
 000567,-0.00007103,-0.00010814,0.00018671,-0.00027045,-0.00000283,-0.0
 0005475,-0.00000824,0.00003352,-0.00000368,0.00000395,-0.00015233,0.00
 002675,-0.00001551,-0.00007461,-0.00011414,0.00033132,0.00000659,0.000
 00414,0.00001130,0.00004126,-0.00001284,-0.00000974,0.00051566,0.00017
 220,-0.00008994,-0.00016529,0.00002918,0.00005559,-0.00320759,-0.00372
 759,0.00461359,0.00686541,0.00182725,0.00451063,0.00134303,-0.00275557
 ,-0.00012596,-0.00003593,-0.00014174,0.00012219,-0.00007256,0.00002920
 ,0.00002065,0.00000383,-0.00005528,-0.00003194,0.00004512,0.00001481,-
 0.00008509,-0.00013591,-0.00000921,0.00003294,0.00000339,0.00004730,0.
 00001730,-0.00010398,0.00001358,-0.00001964,0.00002764,-0.00000038,-0.
 00000448,0.00002364,0.00002254,0.00000687,0.00003737,-0.00006979,0.000
 04544,-0.00006957,0.00004530,-0.00002388,-0.00004150,-0.00000194,-0.00
 001064,0.00021787,0.00003986,-0.00027197,-0.00009063,0.00006973,-0.000
 01013,0.00003919,-0.00009868,0.00011225,0.00006659,0.00007266,-0.00000
 343,0.00001360,-0.00010991,-0.00012914,0.00007064,0.00015818,0.0000850
 0,0.00024290,0.00027758,-0.00112903,0.00011326,0.00077243,0.00016779,0
 .00007718,-0.00017360,0.00023438,-0.17124073,-0.06066750,0.11108597,-0
 .00077500,-0.00086973,-0.00185932,-0.00169981,0.00236183,-0.00057804,-
 0.00563029,0.00105559,-0.00057138,0.00015433,-0.00031415,0.00019104,0.
 00045160,0.00181104,-0.00352338,-0.00008333,-0.00007344,0.00022862,0.0
 0001616,0.00006075,0.00002543,0.00016557,0.00009703,-0.00018948,0.0001
 6078,0.00001104,0.00003310,-0.00000110,-0.00000947,-0.00001048,-0.0000
 9324,0.00001628,-0.00000753,0.00010417,-0.00003904,0.00001343,-0.00000
 794,-0.00001120,-0.00000590,0.00000810,0.00000839,0.00000607,0.0001483
 2,-0.00000446,0.00004948,-0.00015067,0.00001297,-0.00000942,0.00002008
 ,-0.00010016,0.00017143,-0.00016085,0.00003457,-0.00004971,0.17339614,
 -0.00002587,0.00010742,-0.00016822,0.00000354,-0.00001777,0.00003432,-
 0.00006565,0.00019931,0.00024373,0.00008051,0.00003481,0.00007476,0.00
 001167,-0.00001188,0.00000772,-0.00127488,0.00036260,-0.00002368,-0.00
 009739,-0.00047170,0.00013609,0.00000656,-0.00014930,0.00000884,-0.000
 09174,0.00004066,0.00000672,0.00004620,0.00003686,-0.00002668,0.000009
 48,-0.00001136,0.00000796,-0.00003329,0.00000395,-0.00000747,-0.000105
 08,0.00003679,-0.00014357,0.00000859,0.00000241,0.00000517,0.00001894,
 -0.00000302,-0.00000421,0.00014727,0.00003427,0.00010071,-0.00001088,0
 .00000430,0.00002713,-0.00106275,0.00099278,0.00040610,0.00272082,0.00
 015013,0.00475664,-0.00222078,0.00031309,0.00111327,-0.00006625,-0.000
 07716,0.00001593,0.00000078,0.00001877,0.00000557,-0.00002817,-0.00004
 807,-0.00002260,-0.00000482,-0.00002439,-0.00000040,-0.00001111,0.0000
 0185,0.00000898,0.00003269,-0.00000808,-0.00000908,-0.00004875,0.00001
 663,-0.00002487,0.00001683,0.00001138,-0.00000252,0.00001223,0.0000081
 5,0.00000031,0.00002354,-0.00002200,0.00000054,-0.00003031,0.00002189,
 -0.00001082,-0.00000652,-0.00000304,0.00000477,0.00004677,0.00000301,-
 0.00005593,-0.00002611,0.00002199,-0.00000553,0.00001095,-0.00003471,0
 .00006331,0.00005344,-0.00002363,-0.00017466,-0.00003459,0.00003347,-0
 .00000129,-0.00008773,-0.00004217,0.00008701,0.00033523,0.00069217,0.0
 0009764,-0.00022726,-0.00026802,0.00041286,0.00002699,-0.00013352,0.00
 012036,-0.06061159,-0.03866194,0.03939505,-0.00101590,0.00020316,0.001
 04355,-0.00070514,0.00379444,-0.00100655,0.00014329,-0.00097631,0.0014
 3274,0.00004786,-0.00033592,-0.00027473,0.00194185,0.00047788,-0.00060
 311,-0.00001531,0.00004665,0.00005148,0.00003882,-0.00000852,-0.000028
 03,0.00009895,0.00003074,-0.00012188,0.00003389,-0.00000808,0.00005511
 ,-0.00000474,0.00000380,-0.00000592,-0.00003061,0.00000635,-0.00000028
 ,0.00004045,-0.00000873,-0.00001132,-0.00000842,-0.00000289,0.00000253
 ,-0.00000308,-0.00000111,0.00000488,0.00005819,0.00000051,0.00001640,-
 0.00005329,0.00000495,-0.00000356,0.00000166,-0.00002485,0.00004375,-0
 .00005095,0.00001128,-0.00002490,0.06191639,0.03359682,0.00009754,-0.0
 0019789,0.00028966,-0.00000396,-0.00000051,-0.00001929,-0.00016457,-0.
 00045208,-0.00039348,-0.00013623,-0.00009189,-0.00009602,-0.00000551,0
 .00002852,-0.00002053,0.00193221,0.00040509,0.00039363,-0.00059594,0.0
 0006365,0.00040319,0.00009816,0.00010685,-0.00001936,0.00016675,-0.000
 03802,0.00007853,-0.00004444,-0.00004991,0.00001620,-0.00001453,0.0000
 1246,-0.00001287,0.00006094,-0.00000777,0.00001239,0.00030384,0.000269
 47,-0.00011230,-0.00000382,0.00000093,-0.00001185,-0.00002644,0.000009
 69,-0.00000386,-0.00002573,0.00000834,0.00003417,0.00007929,-0.0000175
 2,-0.00003485,0.00072963,-0.00080816,-0.00040283,0.00519913,0.00179967
 ,-0.00903728,-0.00069191,0.00238543,0.00054587,0.00006485,0.00007694,-
 0.00009612,0.00002719,-0.00003163,-0.00000703,-0.00001364,0.00002937,0
 .00004186,-0.00003740,0.00002176,0.00004776,0.00009756,0.00001541,-0.0
 0002281,-0.00003877,-0.00001495,0.00001810,0.00008920,-0.00003939,0.00
 004446,-0.00002933,-0.00000891,0.00000119,-0.00002517,-0.00001647,-0.0
 0000425,-0.00004240,0.00006415,-0.00001880,0.00006470,-0.00004592,0.00
 002431,0.00002914,-0.00000668,0.00000388,-0.00017072,-0.00002384,0.000
 17009,0.00007131,-0.00005314,0.00000940,-0.00002447,0.00007738,-0.0000
 8857,-0.00014673,-0.00009836,0.00007380,0.00016517,0.00007053,0.000049
 18,0.00006365,-0.00006675,-0.00000431,-0.00051738,-0.00027254,0.000506
 59,-0.00008806,-0.00005726,-0.00019085,-0.00003570,0.00015340,-0.00024
 583,0.10600645,0.04445330,-0.09082376,0.00175767,0.00117209,0.00232758
 ,0.00272152,-0.00310539,-0.00034937,0.00020495,0.00081786,-0.00266125,
 0.00004330,0.00046594,0.00031955,-0.00311385,-0.00063665,0.00167764,0.
 00004468,0.00005638,-0.00007222,0.00000661,-0.00006476,-0.00001198,-0.
 00018851,-0.00009889,0.00018026,-0.00010052,0.00002602,-0.00006168,0.0
 0000570,-0.00000078,0.00000673,0.00006453,-0.00001143,-0.00000009,-0.0
 0008008,0.00002100,0.00001203,0.00001276,0.00000607,-0.00000508,0.0000
 0243,0.00000056,-0.00000701,-0.00011776,0.00000245,-0.00003848,0.00011
 056,-0.00001040,0.00000759,-0.00000471,0.00006319,-0.00011002,0.000104
 36,-0.00002610,0.00003971,-0.11405835,-0.04664465,0.09784029,0.0000669
 5,0.00000886,-0.00001581,-0.00000523,-0.00000093,-0.00000004,0.0000178
 9,0.00004370,-0.00002469,-0.00000632,-0.00004097,0.00001711,-0.0000021
 9,-0.00001928,-0.00000672,0.00013111,-0.00041876,-0.00117027,0.0003520
 8,-0.00054234,-0.00049682,-0.00002072,0.00009538,0.00012291,0.00005496
 ,-0.00000786,0.00016015,-0.00027195,0.00033152,0.00026185,0.00001615,-
 0.00000782,0.00003199,0.00005567,0.00000611,-0.00000210,-0.00032112,0.
 00059488,-0.00164018,0.00000094,-0.00000204,0.00000181,-0.00002308,0.0
 0000432,0.00004346,-0.00467090,0.00498680,-0.00363970,-0.00016129,0.00
 007136,0.00002010,-0.01027102,0.00504262,0.00368230,0.00106881,0.00024
 470,-0.00036943,0.00017312,-0.00248801,0.00124103,-0.00001628,0.000010
 15,0.00000541,0.00002366,0.00001647,-0.00002899,-0.00001087,0.00000248
 ,-0.00000472,0.00012075,0.00000986,-0.00008746,0.00022065,0.00002379,-
 0.00005236,0.00029467,-0.00010517,0.00005210,0.00000306,0.00003795,-0.
 00007023,-0.00000554,-0.00004485,0.00002429,0.00001438,0.00000600,0.00
 000415,0.00001867,-0.00003049,0.00009347,-0.00005636,0.00003701,-0.000
 02690,-0.00004718,0.00006165,-0.00002900,0.00038427,-0.00006127,0.0000
 9325,-0.00015498,0.00000937,-0.00009214,0.00012742,-0.00068212,-0.0000
 5184,-0.00110807,-0.00015704,0.00027870,0.00126745,-0.00024774,0.00203
 698,-0.01118272,0.00202605,0.00791223,-0.02476960,0.02454123,0.0348595
 3,0.00201049,-0.00474450,-0.00497871,0.00223564,-0.00476595,0.00015274
 ,0.00067155,-0.00091841,0.00044523,-0.00030654,0.00035953,0.00026393,0
 .00015288,0.00027608,0.00008322,-0.00008970,0.00000966,-0.00020558,-0.
 00003096,0.00002584,0.00002552,-0.00005632,-0.00004731,0.00006272,-0.0
 0000565,0.00001378,0.00000362,-0.00000196,-0.00000975,0.00000075,-0.00
 000557,-0.00000735,0.00000367,-0.00002925,-0.00003368,0.00002640,0.000
 00200,-0.00000465,0.00000603,-0.00001134,-0.00000695,0.00001821,0.0000
 1734,0.00002696,-0.00005149,-0.00000685,-0.00000852,0.00001002,-0.0000
 1051,-0.00000367,0.00000732,0.00001464,-0.00003701,0.00005775,-0.00001
 834,0.00000877,-0.00000509,-0.00009372,-0.00001571,-0.00006847,0.00001
 440,0.00000251,-0.00000146,-0.00022625,0.00012457,0.00012088,0.0444667
 4,0.00016348,-0.00009647,0.00013663,-0.00000077,-0.00001246,0.00002362
 ,0.00000010,0.00002753,-0.00006778,0.00003497,0.00019781,0.00006931,-0
 .00001307,-0.00003282,-0.00000784,-0.00105194,0.00024451,-0.00153011,0
 .00280754,-0.00089984,-0.00181112,-0.00012819,0.00005800,-0.00011067,0
 .00025426,0.00005490,-0.00011182,-0.00004760,0.00032132,0.00003205,-0.
 00002682,-0.00003228,0.00004865,0.00011671,0.00004523,-0.00007085,-0.0
 0071410,-0.00292765,-0.00017011,-0.00000099,-0.00001882,-0.00000250,-0
 .00000984,-0.00002701,0.00006286,0.00464160,-0.00060838,0.00332916,-0.
 00047272,-0.00007017,-0.00013585,0.00160464,-0.04100697,0.00445171,-0.
 00024601,0.00006281,0.00162263,-0.00153452,-0.00113498,0.00604087,-0.0
 0008162,0.00006013,0.00000330,0.00007292,0.00002691,-0.00006184,0.0000
 1769,-0.00000735,-0.00001570,0.00026605,-0.00013319,-0.00026951,-0.000
 28917,0.00012017,0.00003678,-0.00012146,-0.00004504,-0.00018538,0.0000
 1961,0.00007418,-0.00010949,-0.00000859,-0.00001718,0.00007816,0.00004
 312,-0.00001473,0.00004649,0.00006728,-0.00018821,0.00009639,-0.000114
 54,0.00008915,-0.00008531,-0.00011138,0.00015463,-0.00003243,0.0007908
 5,-0.00009337,-0.00028282,-0.00024150,0.00008636,-0.00006494,0.0000013
 3,-0.00084914,-0.00004323,0.00232534,0.00053473,-0.00003722,0.00149651
 ,-0.00069991,-0.00035387,-0.00032717,0.00191293,-0.00121806,0.01912710
 ,-0.03628217,-0.04846162,-0.00053962,-0.01263304,-0.01201871,-0.003062
 64,0.00699713,0.00141969,0.00030169,-0.00119972,-0.00082624,-0.0008130
 9,-0.00004773,0.00034289,-0.00006377,0.00001881,0.00024262,0.00018409,
 0.00006498,0.00005530,0.00000114,0.00006481,-0.00005918,-0.00002473,-0
 .00002305,-0.00000391,0.00002391,-0.00002875,0.00004337,0.00001297,0.0
 0000584,0.00000030,-0.00002209,-0.00000523,0.00000579,-0.00009553,-0.0
 0009544,0.00010734,0.00000524,0.00000964,0.00001813,-0.00001650,-0.000
 02253,0.00004292,0.00003004,0.00008206,-0.00013572,-0.00001566,-0.0000
 1618,0.00002796,-0.00001058,-0.00001669,0.00001958,0.00004370,-0.00004
 802,0.00012128,-0.00004030,0.00000755,-0.00000313,-0.00015463,-0.00003
 757,0.00001345,0.00005893,-0.00000351,0.00000473,-0.00051185,0.0000529
 1,0.00031474,-0.02359984,0.08800055,-0.00017896,0.00020431,-0.00007987
 ,-0.00003505,-0.00004578,-0.00005779,-0.00003049,-0.00002730,0.0000273
 7,-0.00028566,0.00010941,0.00007812,0.00000913,0.00005059,0.00000439,-
 0.00183528,0.00128584,0.00045202,-0.00000233,0.00155386,0.00032502,0.0
 0033776,-0.00036142,-0.00001414,0.00004376,0.00041756,0.00008457,-0.00
 015994,0.00039490,0.00013034,0.00002541,0.00003858,-0.00005641,-0.0000
 3749,-0.00000484,0.00002707,-0.00111768,-0.00301030,-0.00101098,-0.000
 00083,0.00000874,-0.00000825,0.00001170,0.00001997,-0.00010556,-0.0021
 0652,0.00594324,-0.00044455,0.00036425,0.00007271,0.00013711,-0.001794
 34,-0.01430588,-0.01476449,0.00217602,0.00088241,0.00048428,0.00042797
 ,0.00499599,-0.00603875,0.00012864,-0.00005102,-0.00004972,-0.00007821
 ,-0.00004478,0.00007486,-0.00001794,-0.00000667,0.00003328,0.00003629,
 0.00007456,-0.00006461,0.00049193,0.00044196,0.00000508,0.00014880,0.0
 0014269,0.00027303,0.00005359,-0.00007164,0.00016255,0.00000970,0.0000
 0474,-0.00005725,-0.00003286,0.00003978,-0.00002416,-0.00011984,0.0002
 2765,-0.00000083,0.00013644,-0.00011848,0.00008231,0.00017515,-0.00016
 930,0.00007321,-0.00033172,0.00000703,0.00008273,0.00016929,-0.0000439
 3,0.00005589,-0.00005992,-0.00020990,0.00019430,-0.00182119,-0.0037510
 2,-0.00051516,0.00749666,-0.00477455,-0.00212676,0.00893384,0.00017277
 ,-0.00345354,0.03441609,-0.02402094,-0.10701901,-0.00647974,-0.0192084
 1,0.00461358,-0.00054919,0.00360593,-0.00843292,0.00070767,0.00107688,
 0.00115783,0.00009265,-0.00087676,0.00083756,-0.00031408,0.00014160,-0
 .00004022,0.00030639,0.00000718,0.00036295,0.00001416,-0.00003337,0.00
 001039,0.00000829,0.00001791,-0.00003834,-0.00002713,0.00003597,-0.000
 06558,-0.00001556,0.00000268,0.00001776,0.00000072,-0.00000609,0.00001
 453,0.00006780,0.00010330,-0.00012382,-0.00000159,-0.00000599,-0.00000
 869,0.00004318,0.00002101,-0.00005285,-0.00008235,-0.00008028,0.000156
 37,0.00002994,0.00002105,-0.00003400,0.00000026,0.00000666,-0.00003732
 ,-0.00010139,0.00004933,-0.00014911,0.00009980,-0.00000665,0.00000213,
 -0.00000051,0.00002141,-0.00005485,-0.00002953,-0.00000767,0.00001067,
 -0.00020531,-0.00038550,-0.00019161,-0.03911062,0.04942827,0.13514985\
 \-0.00000490,0.00000610,-0.00000805,-0.00000126,0.00000010,0.00000037,
 -0.00000087,0.00000016,0.00000458,-0.00000175,-0.00000326,-0.00000388,
 0.00000018,-0.00000144,0.00000154,0.00001652,-0.00001010,0.00000600,-0
 .00000162,0.00000301,0.00000351,0.00000049,0.00000869,0.00000267,0.000
 00236,-0.00000081,0.00000051,-0.00000560,0.00000071,0.00000340,-0.0000
 0154,0.00000153,-0.00000109,-0.00000362,-0.00000057,0.00000572,-0.0000
 0451,0.00000310,-0.00000904,0.00000113,-0.00000042,-0.00000012,-0.0000
 0146,0.00000197,-0.00000169,0.00000076,-0.00000188,0.00000101,0.000001
 89,0.00000087,0.00000218,0.00000505,0.00000973,-0.00000446,-0.00000559
 ,0.00000666,-0.00000050,-0.00000354,0.00000524,-0.00000157,0.00000245,
 0.00000519,0.00000323,-0.00000239,-0.00000563,0.00000011,0.00000074,0.
 00000169,0.00000055,0.00001007,-0.00000124,-0.00000284,0.00000222,-0.0
 0000393,-0.00000860,-0.00000417,-0.00000246,-0.00000031,0.00001119,-0.
 00001421,0.00000462,0.00000252,-0.00000671,-0.00000055,-0.00000116,-0.
 00000287,-0.00000063,-0.00000452,0.00003396,-0.00000044,-0.00000892,-0
 .00001769,0.00000652,0.00000916,-0.00000547,-0.00000217,-0.00002620,-0
 .00001578,0.00000061,0.00000350,0.00000130,0.00000079,-0.00000217,-0.0
 0000352,-0.00000184,0.00000902,0.00000472,0.00001753,-0.00000542,-0.00
 000773,-0.00002218,-0.00000848,0.00001774,-0.00001082,0.00001994,-0.00
 001061,0.00002703,-0.00000300,-0.00000630,-0.00000544,0.00000342,0.000
 00084,-0.00000640,0.00001359,-0.00000952,-0.00000152,-0.00001182,0.000
 00623,0.00000327,-0.00000796,-0.00000036,-0.00000306,0.00000197,0.0000
 0320,-0.00000262,-0.00000138,-0.00000281,0.00000497,0.00000033,0.00000
 141,0.00000050,0.00000239,0.00000460,-0.00000416,0.00000027,-0.0000011
 7,0.00000155,-0.00000269,0.00000217,-0.00000011,-0.00000141,0.00000378
 ,-0.00000218,0.00000014,-0.00000375,0.00000149,-0.00000185,-0.00000396
 ,0.00000455,0.00000345,0.00000674,-0.00000707,-0.00000536,0.00000064,-
 0.00000064,-0.00000601,-0.00000099,-0.00000202,0.00001465,0.00000426,0
 .00000206,-0.00000034,-0.00000317,-0.00000036,0.00000684,-0.00000118,-
 0.00000262,-0.00000098,-0.00000106,0.00000282,0.00000097,0.00000443,0.
 00000286,-0.00000470,-0.00000014,0.00000248\\\@
 The archive entry for this job was punched.


 MEMORIES ARE LIKE AN ENGLISH GRAMMER LESSON -
 PRESENT TENSE, AND PAST PERFECT.
 Job cpu time:       5 days 20 hours  5 minutes 32.9 seconds.
 Elapsed time:       0 days  2 hours 55 minutes 34.1 seconds.
 File lengths (MBytes):  RWF=  12697 Int=      0 D2E=      0 Chk=    130 Scr=      2
 Normal termination of Gaussian 16 at Tue Feb 14 17:10:29 2023.
