 Entering Gaussian System, Link 0=/apps/GAU16/avx2/g16/g16
 Initial command:
 /apps/GAU16/avx2/g16/l1.exe "/localscratch/chesha/scratch/Gau-117963.inp" -scrdir="/localscratch/chesha/scratch/"
 Entering Link 1 = /apps/GAU16/avx2/g16/l1.exe PID=    117964.
  
 Copyright (c) 1988-2019, Gaussian, Inc.  All Rights Reserved.
  
 This is part of the Gaussian(R) 16 program.  It is based on
 the Gaussian(R) 09 system (copyright 2009, Gaussian, Inc.),
 the Gaussian(R) 03 system (copyright 2003, Gaussian, Inc.),
 the Gaussian(R) 98 system (copyright 1998, Gaussian, Inc.),
 the Gaussian(R) 94 system (copyright 1995, Gaussian, Inc.),
 the Gaussian 92(TM) system (copyright 1992, Gaussian, Inc.),
 the Gaussian 90(TM) system (copyright 1990, Gaussian, Inc.),
 the Gaussian 88(TM) system (copyright 1988, Gaussian, Inc.),
 the Gaussian 86(TM) system (copyright 1986, Carnegie Mellon
 University), and the Gaussian 82(TM) system (copyright 1983,
 Carnegie Mellon University). Gaussian is a federally registered
 trademark of Gaussian, Inc.
  
 This software contains proprietary and confidential information,
 including trade secrets, belonging to Gaussian, Inc.
  
 This software is provided under written license and may be
 used, copied, transmitted, or stored only in accord with that
 written license.
  
 The following legend is applicable only to US Government
 contracts under FAR:
  
                    RESTRICTED RIGHTS LEGEND
  
 Use, reproduction and disclosure by the US Government is
 subject to restrictions as set forth in subparagraphs (a)
 and (c) of the Commercial Computer Software - Restricted
 Rights clause in FAR 52.227-19.
  
 Gaussian, Inc.
 340 Quinnipiac St., Bldg. 40, Wallingford CT 06492
  
  
 ---------------------------------------------------------------
 Warning -- This program may not be used in any manner that
 competes with the business of Gaussian, Inc. or will provide
 assistance to any competitor of Gaussian, Inc.  The licensee
 of this program is prohibited from giving any competitor of
 Gaussian, Inc. access to this program.  By using this program,
 the user acknowledges that Gaussian, Inc. is engaged in the
 business of creating and licensing software in the field of
 computational chemistry and represents and warrants to the
 licensee that it is not a competitor of Gaussian, Inc. and that
 it will not use this program in any manner prohibited above.
 ---------------------------------------------------------------
  

 Cite this work as:
 Gaussian 16, Revision C.01,
 M. J. Frisch, G. W. Trucks, H. B. Schlegel, G. E. Scuseria, 
 M. A. Robb, J. R. Cheeseman, G. Scalmani, V. Barone, 
 G. A. Petersson, H. Nakatsuji, X. Li, M. Caricato, A. V. Marenich, 
 J. Bloino, B. G. Janesko, R. Gomperts, B. Mennucci, H. P. Hratchian, 
 J. V. Ortiz, A. F. Izmaylov, J. L. Sonnenberg, D. Williams-Young, 
 F. Ding, F. Lipparini, F. Egidi, J. Goings, B. Peng, A. Petrone, 
 T. Henderson, D. Ranasinghe, V. G. Zakrzewski, J. Gao, N. Rega, 
 G. Zheng, W. Liang, M. Hada, M. Ehara, K. Toyota, R. Fukuda, 
 J. Hasegawa, M. Ishida, T. Nakajima, Y. Honda, O. Kitao, H. Nakai, 
 T. Vreven, K. Throssell, J. A. Montgomery, Jr., J. E. Peralta, 
 F. Ogliaro, M. J. Bearpark, J. J. Heyd, E. N. Brothers, K. N. Kudin, 
 V. N. Staroverov, T. A. Keith, R. Kobayashi, J. Normand, 
 K. Raghavachari, A. P. Rendell, J. C. Burant, S. S. Iyengar, 
 J. Tomasi, M. Cossi, J. M. Millam, M. Klene, C. Adamo, R. Cammi, 
 J. W. Ochterski, R. L. Martin, K. Morokuma, O. Farkas, 
 J. B. Foresman, and D. J. Fox, Gaussian, Inc., Wallingford CT, 2019.
 
 ******************************************
 Gaussian 16:  ES64L-G16RevC.01  3-Jul-2019
                14-Feb-2023 
 ******************************************
 %nprocshared=48
 Will use up to   48 processors via shared memory.
 %chk=Mo19S43.chk
 %mem=100GB
 ---------------------------------------------------------
 # opt freq b3lyp/gen nosymm pseudo=read scf=maxcycles=500
 ---------------------------------------------------------
 1/18=20,19=15,26=3,38=1/1,3;
 2/9=110,12=2,15=1,17=6,18=5,40=1/2;
 3/5=7,11=2,16=1,17=8,25=1,30=1,71=1,74=-5/1,2,3;
 4//1;
 5/5=2,7=500,38=5/2;
 6/7=2,8=2,9=2,10=2,28=1/1;
 7/30=1/1,2,3,16;
 1/18=20,19=15,26=3/3(2);
 2/9=110,15=1/2;
 99//99;
 2/9=110,15=1/2;
 3/5=7,6=1,11=2,16=1,17=8,25=1,30=1,71=1,74=-5,82=7/1,2,3;
 4/5=5,16=3,69=1/1;
 5/5=2,7=500,38=5/2;
 7/30=1/1,2,3,16;
 1/18=20,19=15,26=3/3(-5);
 2/9=110,15=1/2;
 6/7=2,8=2,9=2,10=2,19=2,28=1/1;
 99/9=1/99;
 -------------------
 Title Card Required
 -------------------
 Symbolic Z-matrix:
 Charge =  0 Multiplicity = 1
 42                    0.14204   1.40854   12.64957 
 16                    2.15891   2.31609   13.70212 
 16                   -0.92366   2.19454   14.83404 
 16                   -0.628     1.04595   10.37967 
 16                    1.76552  -0.35255   12.07545 
 42                   -2.19386   2.77994   11.02441 
 16                   -3.00284   2.5476    8.73306 
 16                   -0.21897   3.70958   12.06452 
 42                    0.83937   2.95854   9.98816 
 16                    0.0462    2.66361   7.69077 
 16                    2.47362   1.22103   9.39471 
 42                    3.24213   1.52772   11.67658 
 42                   -1.50308   4.42986   8.3452 
 16                    5.33656   2.42686   12.86367 
 16                    2.87006   3.83806   11.05589 
 16                   -2.48183   5.12496   10.46282 
 16                    1.25595   6.91541   6.49958 
 42                   -4.49179   4.32217   9.4629 
 16                   -6.0425    2.33866   9.72426 
 16                   -5.56611   4.8924    11.43026 
 42                    2.37744   0.03174   14.36114 
 16                    4.46119  -1.05086   14.76641 
 16                    1.48601   0.82053   16.36914 
 42                    1.49067   4.564     7.33409 
 16                    0.63075   4.31757   4.95155 
 16                    0.4923    5.30283   9.3933 
 42                    3.91996   3.12596   8.98419 
 16                    3.14431   2.84613   6.70371 
 16                    3.474     5.45478   8.44322 
 42                    4.50745   4.79562   6.42197 
 16                    6.69181   4.05268   6.02632 
 16                    4.29319   6.96657   5.71215 
 42                    2.36823   5.92106   4.495 
 16                    3.8758    4.32279   4.03806 
 16                   -1.33682   7.25421   3.99728 
 42                   -0.94699   6.07464   5.70475 
 16                   -2.38331   4.18185   5.95663 
 16                   -1.76934   6.93129   7.77886 
 42                   -3.70892   6.02361   6.71989 
 16                   -5.40317   4.18941   7.06015 
 16                   -4.62424   7.20265   5.22707 
 42                   -5.33455   2.43784   11.8418 
 16                   -3.42842   3.40786   13.12637 
 16                   -3.65149   0.7575    11.52901 
 42                   -2.78861   1.1087    13.83147 
 16                   -1.31259  -0.62406   13.13827 
 16                   -4.28557   0.47985   15.18212 
 42                   -0.53607  -0.13884   15.38371 
 16                    1.06381  -1.86317   14.75123 
 16                   -1.53628  -1.00464   17.03685 
 42                    5.61359   0.12944   13.22232 
 16                    4.95127  -0.3599    11.06228 
 16                    8.25006   1.26356   10.97509 
 42                    6.21104   1.75297   10.64304 
 16                    5.66515   1.27132   8.29356 
 16                    6.03539   4.12317   10.05763 
 42                    6.97027   3.17908   8.12472 
 16                    9.04885   2.81202   8.30619 
 16                    2.10224   6.96624   2.67262 
 16                    7.66008  -0.34632   13.56035 
 16                   -6.99167   1.84972   13.02187 
 16                   -4.90752   6.7261    8.79916 
 

 GradGradGradGradGradGradGradGradGradGradGradGradGradGradGradGradGradGrad
 Berny optimization.
 Initialization pass.
                           ----------------------------
                           !    Initial Parameters    !
                           ! (Angstroms and Degrees)  !
 --------------------------                            --------------------------
 ! Name  Definition              Value          Derivative Info.                !
 --------------------------------------------------------------------------------
 ! R1    R(1,2)                  2.4493         estimate D2E/DX2                !
 ! R2    R(1,3)                  2.5545         estimate D2E/DX2                !
 ! R3    R(1,4)                  2.4242         estimate D2E/DX2                !
 ! R4    R(1,5)                  2.4631         estimate D2E/DX2                !
 ! R5    R(1,8)                  2.4015         estimate D2E/DX2                !
 ! R6    R(1,46)                 2.5468         estimate D2E/DX2                !
 ! R7    R(2,12)                 2.4285         estimate D2E/DX2                !
 ! R8    R(2,21)                 2.3875         estimate D2E/DX2                !
 ! R9    R(3,45)                 2.3795         estimate D2E/DX2                !
 ! R10   R(3,48)                 2.4284         estimate D2E/DX2                !
 ! R11   R(4,6)                  2.4237         estimate D2E/DX2                !
 ! R12   R(4,9)                  2.4422         estimate D2E/DX2                !
 ! R13   R(5,12)                 2.4238         estimate D2E/DX2                !
 ! R14   R(5,21)                 2.3972         estimate D2E/DX2                !
 ! R15   R(6,7)                  2.4411         estimate D2E/DX2                !
 ! R16   R(6,8)                  2.4179         estimate D2E/DX2                !
 ! R17   R(6,16)                 2.4285         estimate D2E/DX2                !
 ! R18   R(6,43)                 2.5173         estimate D2E/DX2                !
 ! R19   R(6,44)                 2.5435         estimate D2E/DX2                !
 ! R20   R(7,13)                 2.4377         estimate D2E/DX2                !
 ! R21   R(7,18)                 2.4287         estimate D2E/DX2                !
 ! R22   R(8,9)                  2.4486         estimate D2E/DX2                !
 ! R23   R(9,10)                 2.4483         estimate D2E/DX2                !
 ! R24   R(9,11)                 2.458          estimate D2E/DX2                !
 ! R25   R(9,15)                 2.4571         estimate D2E/DX2                !
 ! R26   R(9,26)                 2.4434         estimate D2E/DX2                !
 ! R27   R(10,13)                2.4389         estimate D2E/DX2                !
 ! R28   R(10,24)                2.4135         estimate D2E/DX2                !
 ! R29   R(11,12)                2.4273         estimate D2E/DX2                !
 ! R30   R(11,27)                2.4268         estimate D2E/DX2                !
 ! R31   R(12,14)                2.5699         estimate D2E/DX2                !
 ! R32   R(12,15)                2.421          estimate D2E/DX2                !
 ! R33   R(12,52)                2.6195         estimate D2E/DX2                !
 ! R34   R(13,16)                2.4342         estimate D2E/DX2                !
 ! R35   R(13,26)                2.4171         estimate D2E/DX2                !
 ! R36   R(13,37)                2.5577         estimate D2E/DX2                !
 ! R37   R(13,38)                2.5785         estimate D2E/DX2                !
 ! R38   R(14,51)                2.3417         estimate D2E/DX2                !
 ! R39   R(14,54)                2.4799         estimate D2E/DX2                !
 ! R40   R(15,27)                2.4293         estimate D2E/DX2                !
 ! R41   R(16,18)                2.3842         estimate D2E/DX2                !
 ! R42   R(17,24)                2.5061         estimate D2E/DX2                !
 ! R43   R(17,33)                2.4988         estimate D2E/DX2                !
 ! R44   R(17,36)                2.4883         estimate D2E/DX2                !
 ! R45   R(18,19)                2.5313         estimate D2E/DX2                !
 ! R46   R(18,20)                2.313          estimate D2E/DX2                !
 ! R47   R(18,40)                2.5732         estimate D2E/DX2                !
 ! R48   R(18,62)                2.5283         estimate D2E/DX2                !
 ! R49   R(19,42)                2.235          estimate D2E/DX2                !
 ! R50   R(20,42)                2.4996         estimate D2E/DX2                !
 ! R51   R(21,22)                2.3829         estimate D2E/DX2                !
 ! R52   R(21,23)                2.3343         estimate D2E/DX2                !
 ! R53   R(21,48)                3.0925         estimate D2E/DX2                !
 ! R54   R(21,49)                2.3385         estimate D2E/DX2                !
 ! R55   R(22,51)                2.2595         estimate D2E/DX2                !
 ! R56   R(23,48)                2.4455         estimate D2E/DX2                !
 ! R57   R(24,25)                2.5449         estimate D2E/DX2                !
 ! R58   R(24,26)                2.4048         estimate D2E/DX2                !
 ! R59   R(24,28)                2.4664         estimate D2E/DX2                !
 ! R60   R(24,29)                2.4407         estimate D2E/DX2                !
 ! R61   R(25,33)                2.408          estimate D2E/DX2                !
 ! R62   R(25,36)                2.4787         estimate D2E/DX2                !
 ! R63   R(27,28)                2.425          estimate D2E/DX2                !
 ! R64   R(27,29)                2.4321         estimate D2E/DX2                !
 ! R65   R(27,30)                3.1141         estimate D2E/DX2                !
 ! R66   R(27,55)                2.6386         estimate D2E/DX2                !
 ! R67   R(27,56)                2.5733         estimate D2E/DX2                !
 ! R68   R(28,30)                2.3954         estimate D2E/DX2                !
 ! R69   R(29,30)                2.3639         estimate D2E/DX2                !
 ! R70   R(30,31)                2.3409         estimate D2E/DX2                !
 ! R71   R(30,32)                2.2941         estimate D2E/DX2                !
 ! R72   R(30,33)                3.0913         estimate D2E/DX2                !
 ! R73   R(30,34)                2.5111         estimate D2E/DX2                !
 ! R74   R(31,57)                2.29           estimate D2E/DX2                !
 ! R75   R(32,33)                2.506          estimate D2E/DX2                !
 ! R76   R(33,34)                2.2441         estimate D2E/DX2                !
 ! R77   R(33,59)                2.1176         estimate D2E/DX2                !
 ! R78   R(35,36)                2.1116         estimate D2E/DX2                !
 ! R79   R(36,37)                2.3894         estimate D2E/DX2                !
 ! R80   R(36,38)                2.39           estimate D2E/DX2                !
 ! R81   R(36,39)                2.943          estimate D2E/DX2                !
 ! R82   R(37,39)                2.3941         estimate D2E/DX2                !
 ! R83   R(38,39)                2.389          estimate D2E/DX2                !
 ! R84   R(39,40)                2.52           estimate D2E/DX2                !
 ! R85   R(39,41)                2.111          estimate D2E/DX2                !
 ! R86   R(39,62)                2.5007         estimate D2E/DX2                !
 ! R87   R(42,43)                2.4949         estimate D2E/DX2                !
 ! R88   R(42,44)                2.3988         estimate D2E/DX2                !
 ! R89   R(42,61)                2.1177         estimate D2E/DX2                !
 ! R90   R(43,45)                2.4885         estimate D2E/DX2                !
 ! R91   R(44,45)                2.4838         estimate D2E/DX2                !
 ! R92   R(45,46)                2.3794         estimate D2E/DX2                !
 ! R93   R(45,47)                2.112          estimate D2E/DX2                !
 ! R94   R(45,48)                3.0066         estimate D2E/DX2                !
 ! R95   R(46,48)                2.425          estimate D2E/DX2                !
 ! R96   R(48,49)                2.4358         estimate D2E/DX2                !
 ! R97   R(48,50)                2.1173         estimate D2E/DX2                !
 ! R98   R(51,52)                2.3117         estimate D2E/DX2                !
 ! R99   R(51,54)                3.1057         estimate D2E/DX2                !
 ! R100  R(51,60)                2.1281         estimate D2E/DX2                !
 ! R101  R(52,54)                2.4954         estimate D2E/DX2                !
 ! R102  R(53,54)                2.1231         estimate D2E/DX2                !
 ! R103  R(54,55)                2.4597         estimate D2E/DX2                !
 ! R104  R(54,56)                2.4477         estimate D2E/DX2                !
 ! R105  R(54,57)                2.992          estimate D2E/DX2                !
 ! R106  R(55,57)                2.3176         estimate D2E/DX2                !
 ! R107  R(56,57)                2.3455         estimate D2E/DX2                !
 ! R108  R(57,58)                2.1185         estimate D2E/DX2                !
 ! A1    A(2,1,3)               82.0699         estimate D2E/DX2                !
 ! A2    A(2,1,4)              136.0008         estimate D2E/DX2                !
 ! A3    A(2,1,5)               79.7667         estimate D2E/DX2                !
 ! A4    A(2,1,8)               82.7297         estimate D2E/DX2                !
 ! A5    A(2,1,46)             133.123          estimate D2E/DX2                !
 ! A6    A(3,1,4)              135.5791         estimate D2E/DX2                !
 ! A7    A(3,1,5)              133.9719         estimate D2E/DX2                !
 ! A8    A(3,1,8)               81.4195         estimate D2E/DX2                !
 ! A9    A(3,1,46)              80.9786         estimate D2E/DX2                !
 ! A10   A(4,1,5)               83.3485         estimate D2E/DX2                !
 ! A11   A(4,1,8)               82.3833         estimate D2E/DX2                !
 ! A12   A(4,1,46)              83.043          estimate D2E/DX2                !
 ! A13   A(5,1,8)              136.6665         estimate D2E/DX2                !
 ! A14   A(5,1,46)              81.4053         estimate D2E/DX2                !
 ! A15   A(8,1,46)             136.5177         estimate D2E/DX2                !
 ! A16   A(1,2,12)              83.6028         estimate D2E/DX2                !
 ! A17   A(1,2,21)              80.7625         estimate D2E/DX2                !
 ! A18   A(12,2,21)             83.0385         estimate D2E/DX2                !
 ! A19   A(1,3,45)              79.9947         estimate D2E/DX2                !
 ! A20   A(1,3,48)              80.2894         estimate D2E/DX2                !
 ! A21   A(1,4,6)               81.3226         estimate D2E/DX2                !
 ! A22   A(1,4,9)               80.916          estimate D2E/DX2                !
 ! A23   A(6,4,9)               82.5616         estimate D2E/DX2                !
 ! A24   A(1,5,12)              83.4107         estimate D2E/DX2                !
 ! A25   A(1,5,21)              80.2924         estimate D2E/DX2                !
 ! A26   A(12,5,21)             82.937          estimate D2E/DX2                !
 ! A27   A(4,6,7)               84.0485         estimate D2E/DX2                !
 ! A28   A(4,6,8)               82.0572         estimate D2E/DX2                !
 ! A29   A(4,6,16)             134.9059         estimate D2E/DX2                !
 ! A30   A(4,6,43)             135.8432         estimate D2E/DX2                !
 ! A31   A(4,6,44)              81.6136         estimate D2E/DX2                !
 ! A32   A(7,6,8)              135.3223         estimate D2E/DX2                !
 ! A33   A(7,6,16)              80.5342         estimate D2E/DX2                !
 ! A34   A(7,6,43)             130.1669         estimate D2E/DX2                !
 ! A35   A(7,6,44)              85.447          estimate D2E/DX2                !
 ! A36   A(8,6,16)              79.9249         estimate D2E/DX2                !
 ! A37   A(8,6,43)              86.8741         estimate D2E/DX2                !
 ! A38   A(8,6,44)             133.5072         estimate D2E/DX2                !
 ! A39   A(16,6,43)             83.9193         estimate D2E/DX2                !
 ! A40   A(16,6,44)            138.2218         estimate D2E/DX2                !
 ! A41   A(43,6,44)             75.6188         estimate D2E/DX2                !
 ! A42   A(6,7,13)              82.6439         estimate D2E/DX2                !
 ! A43   A(6,7,18)              81.4629         estimate D2E/DX2                !
 ! A44   A(13,7,18)             81.9992         estimate D2E/DX2                !
 ! A45   A(1,8,6)               81.905          estimate D2E/DX2                !
 ! A46   A(1,8,9)               81.2406         estimate D2E/DX2                !
 ! A47   A(6,8,9)               82.549          estimate D2E/DX2                !
 ! A48   A(4,9,8)               81.0583         estimate D2E/DX2                !
 ! A49   A(4,9,10)              82.0354         estimate D2E/DX2                !
 ! A50   A(4,9,11)              83.3736         estimate D2E/DX2                !
 ! A51   A(4,9,15)             135.0099         estimate D2E/DX2                !
 ! A52   A(4,9,26)             134.8347         estimate D2E/DX2                !
 ! A53   A(8,9,10)             133.84           estimate D2E/DX2                !
 ! A54   A(8,9,11)             135.148          estimate D2E/DX2                !
 ! A55   A(8,9,15)              83.0463         estimate D2E/DX2                !
 ! A56   A(8,9,26)              81.4172         estimate D2E/DX2                !
 ! A57   A(10,9,11)             84.4733         estimate D2E/DX2                !
 ! A58   A(10,9,15)            135.9419         estimate D2E/DX2                !
 ! A59   A(10,9,26)             80.8572         estimate D2E/DX2                !
 ! A60   A(11,9,15)             78.9572         estimate D2E/DX2                !
 ! A61   A(11,9,26)            135.5506         estimate D2E/DX2                !
 ! A62   A(15,9,26)             83.0935         estimate D2E/DX2                !
 ! A63   A(9,10,13)             82.3437         estimate D2E/DX2                !
 ! A64   A(9,10,24)             81.3693         estimate D2E/DX2                !
 ! A65   A(13,10,24)            81.3505         estimate D2E/DX2                !
 ! A66   A(9,11,12)             83.9278         estimate D2E/DX2                !
 ! A67   A(9,11,27)             83.2365         estimate D2E/DX2                !
 ! A68   A(12,11,27)            82.5969         estimate D2E/DX2                !
 ! A69   A(2,12,5)              80.9581         estimate D2E/DX2                !
 ! A70   A(2,12,11)            133.1491         estimate D2E/DX2                !
 ! A71   A(2,12,14)             82.222          estimate D2E/DX2                !
 ! A72   A(2,12,15)             80.5315         estimate D2E/DX2                !
 ! A73   A(2,12,52)            136.1007         estimate D2E/DX2                !
 ! A74   A(5,12,11)             82.1723         estimate D2E/DX2                !
 ! A75   A(5,12,14)            133.7807         estimate D2E/DX2                !
 ! A76   A(5,12,15)            133.5388         estimate D2E/DX2                !
 ! A77   A(5,12,52)             82.939          estimate D2E/DX2                !
 ! A78   A(11,12,14)           137.4342         estimate D2E/DX2                !
 ! A79   A(11,12,15)            80.2644         estimate D2E/DX2                !
 ! A80   A(11,12,52)            83.9768         estimate D2E/DX2                !
 ! A81   A(14,12,15)            84.8246         estimate D2E/DX2                !
 ! A82   A(14,12,52)            80.1359         estimate D2E/DX2                !
 ! A83   A(15,12,52)           136.7038         estimate D2E/DX2                !
 ! A84   A(7,13,10)             82.7804         estimate D2E/DX2                !
 ! A85   A(7,13,16)             80.4857         estimate D2E/DX2                !
 ! A86   A(7,13,26)            135.8707         estimate D2E/DX2                !
 ! A87   A(7,13,37)             82.0669         estimate D2E/DX2                !
 ! A88   A(7,13,38)            136.0929         estimate D2E/DX2                !
 ! A89   A(10,13,16)           134.0786         estimate D2E/DX2                !
 ! A90   A(10,13,26)            81.5756         estimate D2E/DX2                !
 ! A91   A(10,13,37)            84.1344         estimate D2E/DX2                !
 ! A92   A(10,13,38)           135.1705         estimate D2E/DX2                !
 ! A93   A(16,13,26)            81.4641         estimate D2E/DX2                !
 ! A94   A(16,13,37)           134.5669         estimate D2E/DX2                !
 ! A95   A(16,13,38)            82.677          estimate D2E/DX2                !
 ! A96   A(26,13,37)           136.3939         estimate D2E/DX2                !
 ! A97   A(26,13,38)            80.2189         estimate D2E/DX2                !
 ! A98   A(37,13,38)            81.5709         estimate D2E/DX2                !
 ! A99   A(12,14,51)            79.8576         estimate D2E/DX2                !
 ! A100  A(12,14,54)            77.2136         estimate D2E/DX2                !
 ! A101  A(9,15,12)             84.0784         estimate D2E/DX2                !
 ! A102  A(9,15,27)             83.2042         estimate D2E/DX2                !
 ! A103  A(12,15,27)            82.674          estimate D2E/DX2                !
 ! A104  A(6,16,13)             82.9783         estimate D2E/DX2                !
 ! A105  A(6,16,18)             82.635          estimate D2E/DX2                !
 ! A106  A(13,16,18)            82.9907         estimate D2E/DX2                !
 ! A107  A(24,17,33)            81.4935         estimate D2E/DX2                !
 ! A108  A(24,17,36)            82.6605         estimate D2E/DX2                !
 ! A109  A(33,17,36)            90.1933         estimate D2E/DX2                !
 ! A110  A(7,18,16)             81.6756         estimate D2E/DX2                !
 ! A111  A(7,18,19)             80.4478         estimate D2E/DX2                !
 ! A112  A(7,18,20)            136.0945         estimate D2E/DX2                !
 ! A113  A(7,18,40)             84.1939         estimate D2E/DX2                !
 ! A114  A(7,18,62)            135.7771         estimate D2E/DX2                !
 ! A115  A(16,18,19)           137.4779         estimate D2E/DX2                !
 ! A116  A(16,18,20)            87.2391         estimate D2E/DX2                !
 ! A117  A(16,18,40)           135.038          estimate D2E/DX2                !
 ! A118  A(16,18,62)            85.904          estimate D2E/DX2                !
 ! A119  A(19,18,20)            79.6776         estimate D2E/DX2                !
 ! A120  A(19,18,40)            80.7355         estimate D2E/DX2                !
 ! A121  A(19,18,62)           132.1777         estimate D2E/DX2                !
 ! A122  A(20,18,40)           129.9742         estimate D2E/DX2                !
 ! A123  A(20,18,62)            84.9812         estimate D2E/DX2                !
 ! A124  A(40,18,62)            75.2668         estimate D2E/DX2                !
 ! A125  A(18,19,42)            82.4726         estimate D2E/DX2                !
 ! A126  A(18,20,42)            81.6582         estimate D2E/DX2                !
 ! A127  A(2,21,5)              82.3471         estimate D2E/DX2                !
 ! A128  A(2,21,22)            124.1711         estimate D2E/DX2                !
 ! A129  A(2,21,23)             83.0604         estimate D2E/DX2                !
 ! A130  A(2,21,48)             93.3145         estimate D2E/DX2                !
 ! A131  A(2,21,49)            140.3472         estimate D2E/DX2                !
 ! A132  A(5,21,22)            108.2128         estimate D2E/DX2                !
 ! A133  A(5,21,23)            140.9774         estimate D2E/DX2                !
 ! A134  A(5,21,48)             93.7814         estimate D2E/DX2                !
 ! A135  A(5,21,49)             83.4401         estimate D2E/DX2                !
 ! A136  A(22,21,23)           109.9478         estimate D2E/DX2                !
 ! A137  A(22,21,48)           137.9496         estimate D2E/DX2                !
 ! A138  A(22,21,49)            95.4347         estimate D2E/DX2                !
 ! A139  A(23,21,49)            85.1701         estimate D2E/DX2                !
 ! A140  A(21,22,51)            95.3046         estimate D2E/DX2                !
 ! A141  A(10,24,17)           137.049          estimate D2E/DX2                !
 ! A142  A(10,24,25)            81.9455         estimate D2E/DX2                !
 ! A143  A(10,24,26)            82.3511         estimate D2E/DX2                !
 ! A144  A(10,24,28)            83.7201         estimate D2E/DX2                !
 ! A145  A(10,24,29)           134.9534         estimate D2E/DX2                !
 ! A146  A(17,24,25)            75.3724         estimate D2E/DX2                !
 ! A147  A(17,24,26)            87.5924         estimate D2E/DX2                !
 ! A148  A(17,24,28)           129.139          estimate D2E/DX2                !
 ! A149  A(17,24,29)            83.3959         estimate D2E/DX2                !
 ! A150  A(25,24,26)           133.7197         estimate D2E/DX2                !
 ! A151  A(25,24,28)            85.4013         estimate D2E/DX2                !
 ! A152  A(25,24,29)           137.3355         estimate D2E/DX2                !
 ! A153  A(26,24,28)           135.3333         estimate D2E/DX2                !
 ! A154  A(26,24,29)            80.5669         estimate D2E/DX2                !
 ! A155  A(28,24,29)            79.9519         estimate D2E/DX2                !
 ! A156  A(24,25,33)            82.485          estimate D2E/DX2                !
 ! A157  A(24,25,36)            82.0653         estimate D2E/DX2                !
 ! A158  A(33,25,36)            92.571          estimate D2E/DX2                !
 ! A159  A(9,26,13)             82.8949         estimate D2E/DX2                !
 ! A160  A(9,26,24)             81.6469         estimate D2E/DX2                !
 ! A161  A(13,26,24)            81.9783         estimate D2E/DX2                !
 ! A162  A(11,27,15)            80.1106         estimate D2E/DX2                !
 ! A163  A(11,27,28)            82.985          estimate D2E/DX2                !
 ! A164  A(11,27,29)           132.8427         estimate D2E/DX2                !
 ! A165  A(11,27,30)           132.2591         estimate D2E/DX2                !
 ! A166  A(11,27,55)            83.4962         estimate D2E/DX2                !
 ! A167  A(11,27,56)           136.3509         estimate D2E/DX2                !
 ! A168  A(15,27,28)           134.2332         estimate D2E/DX2                !
 ! A169  A(15,27,29)            80.1977         estimate D2E/DX2                !
 ! A170  A(15,27,30)           128.7582         estimate D2E/DX2                !
 ! A171  A(15,27,55)           135.6515         estimate D2E/DX2                !
 ! A172  A(15,27,56)            83.4508         estimate D2E/DX2                !
 ! A173  A(28,27,29)            80.948          estimate D2E/DX2                !
 ! A174  A(28,27,55)            83.3562         estimate D2E/DX2                !
 ! A175  A(28,27,56)           134.4237         estimate D2E/DX2                !
 ! A176  A(29,27,55)           137.4005         estimate D2E/DX2                !
 ! A177  A(29,27,56)            82.6721         estimate D2E/DX2                !
 ! A178  A(30,27,55)            92.1047         estimate D2E/DX2                !
 ! A179  A(30,27,56)            88.8744         estimate D2E/DX2                !
 ! A180  A(55,27,56)            80.668          estimate D2E/DX2                !
 ! A181  A(24,28,27)            83.8993         estimate D2E/DX2                !
 ! A182  A(24,28,30)            81.0688         estimate D2E/DX2                !
 ! A183  A(24,29,27)            84.296          estimate D2E/DX2                !
 ! A184  A(24,29,30)            82.2372         estimate D2E/DX2                !
 ! A185  A(27,30,31)            98.3335         estimate D2E/DX2                !
 ! A186  A(27,30,32)           138.102          estimate D2E/DX2                !
 ! A187  A(27,30,33)           125.2763         estimate D2E/DX2                !
 ! A188  A(27,30,34)           129.2485         estimate D2E/DX2                !
 ! A189  A(28,30,29)            82.9682         estimate D2E/DX2                !
 ! A190  A(28,30,31)           107.0131         estimate D2E/DX2                !
 ! A191  A(28,30,32)           138.8862         estimate D2E/DX2                !
 ! A192  A(28,30,33)            88.6139         estimate D2E/DX2                !
 ! A193  A(28,30,34)            79.3547         estimate D2E/DX2                !
 ! A194  A(29,30,31)           129.8632         estimate D2E/DX2                !
 ! A195  A(29,30,32)            87.6993         estimate D2E/DX2                !
 ! A196  A(29,30,33)            97.4087         estimate D2E/DX2                !
 ! A197  A(29,30,34)           138.9625         estimate D2E/DX2                !
 ! A198  A(31,30,32)           109.5843         estimate D2E/DX2                !
 ! A199  A(31,30,33)           130.9895         estimate D2E/DX2                !
 ! A200  A(31,30,34)            90.8314         estimate D2E/DX2                !
 ! A201  A(32,30,34)            82.0074         estimate D2E/DX2                !
 ! A202  A(30,31,57)            94.5694         estimate D2E/DX2                !
 ! A203  A(17,33,25)            77.9778         estimate D2E/DX2                !
 ! A204  A(17,33,30)            87.2971         estimate D2E/DX2                !
 ! A205  A(17,33,32)            77.6591         estimate D2E/DX2                !
 ! A206  A(17,33,34)           138.2254         estimate D2E/DX2                !
 ! A207  A(17,33,59)           115.9793         estimate D2E/DX2                !
 ! A208  A(25,33,30)            97.9727         estimate D2E/DX2                !
 ! A209  A(25,33,32)           137.7296         estimate D2E/DX2                !
 ! A210  A(25,33,34)            92.8129         estimate D2E/DX2                !
 ! A211  A(25,33,59)           113.6533         estimate D2E/DX2                !
 ! A212  A(30,33,59)           143.4241         estimate D2E/DX2                !
 ! A213  A(32,33,34)            83.1081         estimate D2E/DX2                !
 ! A214  A(32,33,59)           107.9718         estimate D2E/DX2                !
 ! A215  A(34,33,59)           105.1105         estimate D2E/DX2                !
 ! A216  A(17,36,25)            76.8827         estimate D2E/DX2                !
 ! A217  A(17,36,35)           103.4728         estimate D2E/DX2                !
 ! A218  A(17,36,37)           140.0125         estimate D2E/DX2                !
 ! A219  A(17,36,38)            84.6235         estimate D2E/DX2                !
 ! A220  A(17,36,39)           136.596          estimate D2E/DX2                !
 ! A221  A(25,36,35)           105.5325         estimate D2E/DX2                !
 ! A222  A(25,36,37)            81.5537         estimate D2E/DX2                !
 ! A223  A(25,36,38)           137.4601         estimate D2E/DX2                !
 ! A224  A(25,36,39)           133.6207         estimate D2E/DX2                !
 ! A225  A(35,36,37)           114.6319         estimate D2E/DX2                !
 ! A226  A(35,36,38)           115.9762         estimate D2E/DX2                !
 ! A227  A(35,36,39)            96.6238         estimate D2E/DX2                !
 ! A228  A(37,36,38)            89.1762         estimate D2E/DX2                !
 ! A229  A(13,37,36)            79.3244         estimate D2E/DX2                !
 ! A230  A(13,37,39)            79.5273         estimate D2E/DX2                !
 ! A231  A(13,38,36)            78.8933         estimate D2E/DX2                !
 ! A232  A(13,38,39)            79.1995         estimate D2E/DX2                !
 ! A233  A(36,39,40)           133.641          estimate D2E/DX2                !
 ! A234  A(36,39,41)            98.8185         estimate D2E/DX2                !
 ! A235  A(36,39,62)           137.0327         estimate D2E/DX2                !
 ! A236  A(37,39,38)            89.0868         estimate D2E/DX2                !
 ! A237  A(37,39,40)            81.6848         estimate D2E/DX2                !
 ! A238  A(37,39,41)           116.3775         estimate D2E/DX2                !
 ! A239  A(37,39,62)           138.2939         estimate D2E/DX2                !
 ! A240  A(38,39,40)           139.6877         estimate D2E/DX2                !
 ! A241  A(38,39,41)           116.9544         estimate D2E/DX2                !
 ! A242  A(38,39,62)            85.0572         estimate D2E/DX2                !
 ! A243  A(40,39,41)           102.1509         estimate D2E/DX2                !
 ! A244  A(40,39,62)            76.7003         estimate D2E/DX2                !
 ! A245  A(41,39,62)           102.9009         estimate D2E/DX2                !
 ! A246  A(18,40,39)            81.3967         estimate D2E/DX2                !
 ! A247  A(19,42,20)            81.8501         estimate D2E/DX2                !
 ! A248  A(19,42,43)           138.3397         estimate D2E/DX2                !
 ! A249  A(19,42,44)            93.8773         estimate D2E/DX2                !
 ! A250  A(19,42,61)           105.5322         estimate D2E/DX2                !
 ! A251  A(20,42,43)            76.9234         estimate D2E/DX2                !
 ! A252  A(20,42,44)           137.0052         estimate D2E/DX2                !
 ! A253  A(20,42,61)           106.9765         estimate D2E/DX2                !
 ! A254  A(43,42,44)            78.6636         estimate D2E/DX2                !
 ! A255  A(43,42,61)           114.7667         estimate D2E/DX2                !
 ! A256  A(44,42,61)           115.2879         estimate D2E/DX2                !
 ! A257  A(6,43,42)             81.2446         estimate D2E/DX2                !
 ! A258  A(6,43,45)             83.1101         estimate D2E/DX2                !
 ! A259  A(42,43,45)            89.0318         estimate D2E/DX2                !
 ! A260  A(6,44,42)             82.5864         estimate D2E/DX2                !
 ! A261  A(6,44,45)             82.6683         estimate D2E/DX2                !
 ! A262  A(42,44,45)            91.3654         estimate D2E/DX2                !
 ! A263  A(3,45,43)             84.2197         estimate D2E/DX2                !
 ! A264  A(3,45,44)            136.6661         estimate D2E/DX2                !
 ! A265  A(3,45,46)             88.2164         estimate D2E/DX2                !
 ! A266  A(3,45,47)            114.9565         estimate D2E/DX2                !
 ! A267  A(43,45,44)            77.2122         estimate D2E/DX2                !
 ! A268  A(43,45,46)           138.5698         estimate D2E/DX2                !
 ! A269  A(43,45,47)           105.9062         estimate D2E/DX2                !
 ! A270  A(43,45,48)           136.2419         estimate D2E/DX2                !
 ! A271  A(44,45,46)            80.9366         estimate D2E/DX2                !
 ! A272  A(44,45,47)           107.7272         estimate D2E/DX2                !
 ! A273  A(44,45,48)           132.8584         estimate D2E/DX2                !
 ! A274  A(46,45,47)           114.152          estimate D2E/DX2                !
 ! A275  A(47,45,48)            94.4337         estimate D2E/DX2                !
 ! A276  A(1,46,45)             80.1546         estimate D2E/DX2                !
 ! A277  A(1,46,48)             80.5081         estimate D2E/DX2                !
 ! A278  A(3,48,21)             91.2905         estimate D2E/DX2                !
 ! A279  A(3,48,23)             81.1543         estimate D2E/DX2                !
 ! A280  A(3,48,46)             86.0753         estimate D2E/DX2                !
 ! A281  A(3,48,49)            136.5758         estimate D2E/DX2                !
 ! A282  A(3,48,50)            119.6208         estimate D2E/DX2                !
 ! A283  A(21,48,45)           120.813          estimate D2E/DX2                !
 ! A284  A(21,48,46)            90.3747         estimate D2E/DX2                !
 ! A285  A(21,48,50)           136.5356         estimate D2E/DX2                !
 ! A286  A(23,48,45)           131.6627         estimate D2E/DX2                !
 ! A287  A(23,48,46)           135.7588         estimate D2E/DX2                !
 ! A288  A(23,48,49)            80.7495         estimate D2E/DX2                !
 ! A289  A(23,48,50)           103.675          estimate D2E/DX2                !
 ! A290  A(45,48,49)           130.6751         estimate D2E/DX2                !
 ! A291  A(45,48,50)           102.6416         estimate D2E/DX2                !
 ! A292  A(46,48,49)            80.1096         estimate D2E/DX2                !
 ! A293  A(46,48,50)           119.3332         estimate D2E/DX2                !
 ! A294  A(49,48,50)           102.9174         estimate D2E/DX2                !
 ! A295  A(14,51,22)           123.8364         estimate D2E/DX2                !
 ! A296  A(14,51,52)            91.7577         estimate D2E/DX2                !
 ! A297  A(14,51,60)           110.9428         estimate D2E/DX2                !
 ! A298  A(22,51,52)           112.4477         estimate D2E/DX2                !
 ! A299  A(22,51,54)           159.8384         estimate D2E/DX2                !
 ! A300  A(22,51,60)           105.3752         estimate D2E/DX2                !
 ! A301  A(52,51,60)           112.1245         estimate D2E/DX2                !
 ! A302  A(54,51,60)            93.6576         estimate D2E/DX2                !
 ! A303  A(12,52,51)            79.3547         estimate D2E/DX2                !
 ! A304  A(12,52,54)            76.0336         estimate D2E/DX2                !
 ! A305  A(14,54,52)            84.3544         estimate D2E/DX2                !
 ! A306  A(14,54,53)           105.1444         estimate D2E/DX2                !
 ! A307  A(14,54,55)           146.1269         estimate D2E/DX2                !
 ! A308  A(14,54,56)            85.7401         estimate D2E/DX2                !
 ! A309  A(14,54,57)           135.5313         estimate D2E/DX2                !
 ! A310  A(51,54,53)            86.2361         estimate D2E/DX2                !
 ! A311  A(51,54,55)           130.4082         estimate D2E/DX2                !
 ! A312  A(51,54,56)           133.7102         estimate D2E/DX2                !
 ! A313  A(52,54,53)           105.2714         estimate D2E/DX2                !
 ! A314  A(52,54,55)            83.2601         estimate D2E/DX2                !
 ! A315  A(52,54,56)           145.4712         estimate D2E/DX2                !
 ! A316  A(52,54,57)           132.3057         estimate D2E/DX2                !
 ! A317  A(53,54,55)           108.5064         estimate D2E/DX2                !
 ! A318  A(53,54,56)           109.2411         estimate D2E/DX2                !
 ! A319  A(53,54,57)            89.8746         estimate D2E/DX2                !
 ! A320  A(55,54,56)            86.8611         estimate D2E/DX2                !
 ! A321  A(27,55,54)            76.0628         estimate D2E/DX2                !
 ! A322  A(27,55,57)            79.2191         estimate D2E/DX2                !
 ! A323  A(27,56,54)            77.4969         estimate D2E/DX2                !
 ! A324  A(27,56,57)            80.0908         estimate D2E/DX2                !
 ! A325  A(31,57,54)           157.256          estimate D2E/DX2                !
 ! A326  A(31,57,55)           108.1979         estimate D2E/DX2                !
 ! A327  A(31,57,56)           123.5817         estimate D2E/DX2                !
 ! A328  A(31,57,58)           105.3014         estimate D2E/DX2                !
 ! A329  A(54,57,58)            95.4102         estimate D2E/DX2                !
 ! A330  A(55,57,56)            92.6848         estimate D2E/DX2                !
 ! A331  A(55,57,58)           113.8064         estimate D2E/DX2                !
 ! A332  A(56,57,58)           112.9679         estimate D2E/DX2                !
 ! A333  A(18,62,39)            82.6676         estimate D2E/DX2                !
 ! A334  L(51,54,57,53,-1)     176.1107         estimate D2E/DX2                !
 ! A335  L(51,54,57,53,-2)     177.8436         estimate D2E/DX2                !
 ! D1    D(3,1,2,12)           178.3179         estimate D2E/DX2                !
 ! D2    D(3,1,2,21)            94.364          estimate D2E/DX2                !
 ! D3    D(4,1,2,12)           -28.3214         estimate D2E/DX2                !
 ! D4    D(4,1,2,21)          -112.2753         estimate D2E/DX2                !
 ! D5    D(5,1,2,12)            40.8            estimate D2E/DX2                !
 ! D6    D(5,1,2,21)           -43.1539         estimate D2E/DX2                !
 ! D7    D(8,1,2,12)           -99.3881         estimate D2E/DX2                !
 ! D8    D(8,1,2,21)           176.658          estimate D2E/DX2                !
 ! D9    D(46,1,2,12)          108.6439         estimate D2E/DX2                !
 ! D10   D(46,1,2,21)           24.6901         estimate D2E/DX2                !
 ! D11   D(2,1,3,45)          -174.9091         estimate D2E/DX2                !
 ! D12   D(2,1,3,48)           -96.1189         estimate D2E/DX2                !
 ! D13   D(4,1,3,45)            31.5137         estimate D2E/DX2                !
 ! D14   D(4,1,3,48)           110.3039         estimate D2E/DX2                !
 ! D15   D(5,1,3,45)          -107.4675         estimate D2E/DX2                !
 ! D16   D(5,1,3,48)           -28.6773         estimate D2E/DX2                !
 ! D17   D(8,1,3,45)           101.3024         estimate D2E/DX2                !
 ! D18   D(8,1,3,48)          -179.9074         estimate D2E/DX2                !
 ! D19   D(46,1,3,45)          -38.7781         estimate D2E/DX2                !
 ! D20   D(46,1,3,48)           40.0121         estimate D2E/DX2                !
 ! D21   D(2,1,4,6)           -112.3492         estimate D2E/DX2                !
 ! D22   D(2,1,4,9)            -28.5619         estimate D2E/DX2                !
 ! D23   D(3,1,4,6)             28.2698         estimate D2E/DX2                !
 ! D24   D(3,1,4,9)            112.057          estimate D2E/DX2                !
 ! D25   D(5,1,4,6)            179.8758         estimate D2E/DX2                !
 ! D26   D(5,1,4,9)            -96.3369         estimate D2E/DX2                !
 ! D27   D(8,1,4,6)            -41.15           estimate D2E/DX2                !
 ! D28   D(8,1,4,9)             42.6372         estimate D2E/DX2                !
 ! D29   D(46,1,4,6)            97.77           estimate D2E/DX2                !
 ! D30   D(46,1,4,9)          -178.4428         estimate D2E/DX2                !
 ! D31   D(2,1,5,12)           -40.9151         estimate D2E/DX2                !
 ! D32   D(2,1,5,21)            43.0107         estimate D2E/DX2                !
 ! D33   D(3,1,5,12)          -109.2633         estimate D2E/DX2                !
 ! D34   D(3,1,5,21)           -25.3374         estimate D2E/DX2                !
 ! D35   D(4,1,5,12)            98.2838         estimate D2E/DX2                !
 ! D36   D(4,1,5,21)          -177.7903         estimate D2E/DX2                !
 ! D37   D(8,1,5,12)            26.8293         estimate D2E/DX2                !
 ! D38   D(8,1,5,21)           110.7552         estimate D2E/DX2                !
 ! D39   D(46,1,5,12)         -177.784          estimate D2E/DX2                !
 ! D40   D(46,1,5,21)          -93.8581         estimate D2E/DX2                !
 ! D41   D(2,1,8,6)            179.6725         estimate D2E/DX2                !
 ! D42   D(2,1,8,9)             96.0231         estimate D2E/DX2                !
 ! D43   D(3,1,8,6)            -97.3009         estimate D2E/DX2                !
 ! D44   D(3,1,8,9)            179.0497         estimate D2E/DX2                !
 ! D45   D(4,1,8,6)             41.195          estimate D2E/DX2                !
 ! D46   D(4,1,8,9)            -42.4543         estimate D2E/DX2                !
 ! D47   D(5,1,8,6)            113.0134         estimate D2E/DX2                !
 ! D48   D(5,1,8,9)             29.3641         estimate D2E/DX2                !
 ! D49   D(46,1,8,6)           -30.2273         estimate D2E/DX2                !
 ! D50   D(46,1,8,9)          -113.8766         estimate D2E/DX2                !
 ! D51   D(2,1,46,45)          108.8763         estimate D2E/DX2                !
 ! D52   D(2,1,46,48)           30.0695         estimate D2E/DX2                !
 ! D53   D(3,1,46,45)           38.7581         estimate D2E/DX2                !
 ! D54   D(3,1,46,48)          -40.0487         estimate D2E/DX2                !
 ! D55   D(4,1,46,45)          -99.6506         estimate D2E/DX2                !
 ! D56   D(4,1,46,48)         -178.4575         estimate D2E/DX2                !
 ! D57   D(5,1,46,45)          176.0639         estimate D2E/DX2                !
 ! D58   D(5,1,46,48)           97.257          estimate D2E/DX2                !
 ! D59   D(8,1,46,45)          -28.4775         estimate D2E/DX2                !
 ! D60   D(8,1,46,48)         -107.2844         estimate D2E/DX2                !
 ! D61   D(1,2,12,5)           -41.427          estimate D2E/DX2                !
 ! D62   D(1,2,12,11)           28.8059         estimate D2E/DX2                !
 ! D63   D(1,2,12,14)         -178.217          estimate D2E/DX2                !
 ! D64   D(1,2,12,15)           95.7694         estimate D2E/DX2                !
 ! D65   D(1,2,12,52)         -111.2524         estimate D2E/DX2                !
 ! D66   D(21,2,12,5)           40.0015         estimate D2E/DX2                !
 ! D67   D(21,2,12,11)         110.2344         estimate D2E/DX2                !
 ! D68   D(21,2,12,14)         -96.7884         estimate D2E/DX2                !
 ! D69   D(21,2,12,15)         177.1979         estimate D2E/DX2                !
 ! D70   D(21,2,12,52)         -29.8239         estimate D2E/DX2                !
 ! D71   D(1,2,21,5)            44.2503         estimate D2E/DX2                !
 ! D72   D(1,2,21,22)          151.1047         estimate D2E/DX2                !
 ! D73   D(1,2,21,23)          -99.4585         estimate D2E/DX2                !
 ! D74   D(1,2,21,48)          -49.1248         estimate D2E/DX2                !
 ! D75   D(1,2,21,49)          -25.705          estimate D2E/DX2                !
 ! D76   D(12,2,21,5)          -40.3637         estimate D2E/DX2                !
 ! D77   D(12,2,21,22)          66.4907         estimate D2E/DX2                !
 ! D78   D(12,2,21,23)         175.9274         estimate D2E/DX2                !
 ! D79   D(12,2,21,48)        -133.7389         estimate D2E/DX2                !
 ! D80   D(12,2,21,49)        -110.319          estimate D2E/DX2                !
 ! D81   D(1,3,45,43)          -97.7274         estimate D2E/DX2                !
 ! D82   D(1,3,45,44)          -33.2889         estimate D2E/DX2                !
 ! D83   D(1,3,45,46)           41.4829         estimate D2E/DX2                !
 ! D84   D(1,3,45,47)          157.397          estimate D2E/DX2                !
 ! D85   D(1,3,48,21)           48.3381         estimate D2E/DX2                !
 ! D86   D(1,3,48,23)           95.5625         estimate D2E/DX2                !
 ! D87   D(1,3,48,46)          -41.949          estimate D2E/DX2                !
 ! D88   D(1,3,48,49)           29.2095         estimate D2E/DX2                !
 ! D89   D(1,3,48,50)         -163.6746         estimate D2E/DX2                !
 ! D90   D(1,4,6,7)            178.276          estimate D2E/DX2                !
 ! D91   D(1,4,6,8)             40.8507         estimate D2E/DX2                !
 ! D92   D(1,4,6,16)           107.9924         estimate D2E/DX2                !
 ! D93   D(1,4,6,43)           -36.2801         estimate D2E/DX2                !
 ! D94   D(1,4,6,44)           -95.4684         estimate D2E/DX2                !
 ! D95   D(9,4,6,7)             96.3898         estimate D2E/DX2                !
 ! D96   D(9,4,6,8)            -41.0355         estimate D2E/DX2                !
 ! D97   D(9,4,6,16)            26.1062         estimate D2E/DX2                !
 ! D98   D(9,4,6,43)          -118.1663         estimate D2E/DX2                !
 ! D99   D(9,4,6,44)          -177.3546         estimate D2E/DX2                !
 ! D100  D(1,4,9,8)            -41.8043         estimate D2E/DX2                !
 ! D101  D(1,4,9,10)          -178.6917         estimate D2E/DX2                !
 ! D102  D(1,4,9,11)            95.9916         estimate D2E/DX2                !
 ! D103  D(1,4,9,15)            28.8815         estimate D2E/DX2                !
 ! D104  D(1,4,9,26)          -110.1211         estimate D2E/DX2                !
 ! D105  D(6,4,9,8)             40.5406         estimate D2E/DX2                !
 ! D106  D(6,4,9,10)           -96.3467         estimate D2E/DX2                !
 ! D107  D(6,4,9,11)           178.3366         estimate D2E/DX2                !
 ! D108  D(6,4,9,15)           111.2265         estimate D2E/DX2                !
 ! D109  D(6,4,9,26)           -27.7761         estimate D2E/DX2                !
 ! D110  D(1,5,12,2)            41.1647         estimate D2E/DX2                !
 ! D111  D(1,5,12,11)          -94.9638         estimate D2E/DX2                !
 ! D112  D(1,5,12,14)          111.1471         estimate D2E/DX2                !
 ! D113  D(1,5,12,15)          -26.4393         estimate D2E/DX2                !
 ! D114  D(1,5,12,52)         -179.8175         estimate D2E/DX2                !
 ! D115  D(21,5,12,2)          -39.8183         estimate D2E/DX2                !
 ! D116  D(21,5,12,11)        -175.9468         estimate D2E/DX2                !
 ! D117  D(21,5,12,14)          30.1641         estimate D2E/DX2                !
 ! D118  D(21,5,12,15)        -107.4223         estimate D2E/DX2                !
 ! D119  D(21,5,12,52)          99.1995         estimate D2E/DX2                !
 ! D120  D(1,5,21,2)           -44.0155         estimate D2E/DX2                !
 ! D121  D(1,5,21,22)         -167.5466         estimate D2E/DX2                !
 ! D122  D(1,5,21,23)           24.9201         estimate D2E/DX2                !
 ! D123  D(1,5,21,48)           48.8266         estimate D2E/DX2                !
 ! D124  D(1,5,21,49)           98.8686         estimate D2E/DX2                !
 ! D125  D(12,5,21,2)           40.4691         estimate D2E/DX2                !
 ! D126  D(12,5,21,22)         -83.0621         estimate D2E/DX2                !
 ! D127  D(12,5,21,23)         109.4047         estimate D2E/DX2                !
 ! D128  D(12,5,21,48)         133.3111         estimate D2E/DX2                !
 ! D129  D(12,5,21,49)        -176.6468         estimate D2E/DX2                !
 ! D130  D(4,6,7,13)           -95.7798         estimate D2E/DX2                !
 ! D131  D(4,6,7,18)          -178.7414         estimate D2E/DX2                !
 ! D132  D(8,6,7,13)           -23.4191         estimate D2E/DX2                !
 ! D133  D(8,6,7,18)          -106.3807         estimate D2E/DX2                !
 ! D134  D(16,6,7,13)           41.6924         estimate D2E/DX2                !
 ! D135  D(16,6,7,18)          -41.2692         estimate D2E/DX2                !
 ! D136  D(43,6,7,13)          115.3567         estimate D2E/DX2                !
 ! D137  D(43,6,7,18)           32.395          estimate D2E/DX2                !
 ! D138  D(44,6,7,13)         -177.8013         estimate D2E/DX2                !
 ! D139  D(44,6,7,18)           99.2371         estimate D2E/DX2                !
 ! D140  D(4,6,8,1)            -41.245          estimate D2E/DX2                !
 ! D141  D(4,6,8,9)             40.9082         estimate D2E/DX2                !
 ! D142  D(7,6,8,1)           -114.3872         estimate D2E/DX2                !
 ! D143  D(7,6,8,9)            -32.2341         estimate D2E/DX2                !
 ! D144  D(16,6,8,1)          -179.7261         estimate D2E/DX2                !
 ! D145  D(16,6,8,9)           -97.5729         estimate D2E/DX2                !
 ! D146  D(43,6,8,1)            95.9006         estimate D2E/DX2                !
 ! D147  D(43,6,8,9)           178.0537         estimate D2E/DX2                !
 ! D148  D(44,6,8,1)            29.1537         estimate D2E/DX2                !
 ! D149  D(44,6,8,9)           111.3068         estimate D2E/DX2                !
 ! D150  D(4,6,16,13)           29.9345         estimate D2E/DX2                !
 ! D151  D(4,6,16,18)          113.7313         estimate D2E/DX2                !
 ! D152  D(7,6,16,13)          -41.7289         estimate D2E/DX2                !
 ! D153  D(7,6,16,18)           42.0679         estimate D2E/DX2                !
 ! D154  D(8,6,16,13)           97.8946         estimate D2E/DX2                !
 ! D155  D(8,6,16,18)         -178.3086         estimate D2E/DX2                !
 ! D156  D(43,6,16,13)        -174.2126         estimate D2E/DX2                !
 ! D157  D(43,6,16,18)         -90.4158         estimate D2E/DX2                !
 ! D158  D(44,6,16,13)        -113.8256         estimate D2E/DX2                !
 ! D159  D(44,6,16,18)         -30.0288         estimate D2E/DX2                !
 ! D160  D(4,6,43,42)         -105.8184         estimate D2E/DX2                !
 ! D161  D(4,6,43,45)          -15.7389         estimate D2E/DX2                !
 ! D162  D(7,6,43,42)           26.5981         estimate D2E/DX2                !
 ! D163  D(7,6,43,45)          116.6777         estimate D2E/DX2                !
 ! D164  D(8,6,43,42)          178.9493         estimate D2E/DX2                !
 ! D165  D(8,6,43,45)          -90.9712         estimate D2E/DX2                !
 ! D166  D(16,6,43,42)          98.7588         estimate D2E/DX2                !
 ! D167  D(16,6,43,45)        -171.1617         estimate D2E/DX2                !
 ! D168  D(44,6,43,42)         -44.5171         estimate D2E/DX2                !
 ! D169  D(44,6,43,45)          45.5624         estimate D2E/DX2                !
 ! D170  D(4,6,44,42)         -171.527          estimate D2E/DX2                !
 ! D171  D(4,6,44,45)           96.125          estimate D2E/DX2                !
 ! D172  D(7,6,44,42)          -86.8862         estimate D2E/DX2                !
 ! D173  D(7,6,44,45)         -179.2342         estimate D2E/DX2                !
 ! D174  D(8,6,44,42)          117.8948         estimate D2E/DX2                !
 ! D175  D(8,6,44,45)           25.5468         estimate D2E/DX2                !
 ! D176  D(16,6,44,42)         -16.5656         estimate D2E/DX2                !
 ! D177  D(16,6,44,45)        -108.9136         estimate D2E/DX2                !
 ! D178  D(43,6,44,42)          46.618          estimate D2E/DX2                !
 ! D179  D(43,6,44,45)         -45.73           estimate D2E/DX2                !
 ! D180  D(6,7,13,10)           95.4934         estimate D2E/DX2                !
 ! D181  D(6,7,13,16)          -41.579          estimate D2E/DX2                !
 ! D182  D(6,7,13,26)           25.5336         estimate D2E/DX2                !
 ! D183  D(6,7,13,37)         -179.4605         estimate D2E/DX2                !
 ! D184  D(6,7,13,38)         -110.4494         estimate D2E/DX2                !
 ! D185  D(18,7,13,10)         177.8499         estimate D2E/DX2                !
 ! D186  D(18,7,13,16)          40.7775         estimate D2E/DX2                !
 ! D187  D(18,7,13,26)         107.8901         estimate D2E/DX2                !
 ! D188  D(18,7,13,37)         -97.104          estimate D2E/DX2                !
 ! D189  D(18,7,13,38)         -28.0928         estimate D2E/DX2                !
 ! D190  D(6,7,18,16)           42.0486         estimate D2E/DX2                !
 ! D191  D(6,7,18,19)          -99.2083         estimate D2E/DX2                !
 ! D192  D(6,7,18,20)          -35.112          estimate D2E/DX2                !
 ! D193  D(6,7,18,40)          179.244          estimate D2E/DX2                !
 ! D194  D(6,7,18,62)          117.3433         estimate D2E/DX2                !
 ! D195  D(13,7,18,16)         -41.6566         estimate D2E/DX2                !
 ! D196  D(13,7,18,19)         177.0865         estimate D2E/DX2                !
 ! D197  D(13,7,18,20)        -118.8172         estimate D2E/DX2                !
 ! D198  D(13,7,18,40)          95.5388         estimate D2E/DX2                !
 ! D199  D(13,7,18,62)          33.6381         estimate D2E/DX2                !
 ! D200  D(1,8,9,4)             42.2438         estimate D2E/DX2                !
 ! D201  D(1,8,9,10)           112.0275         estimate D2E/DX2                !
 ! D202  D(1,8,9,11)           -28.8641         estimate D2E/DX2                !
 ! D203  D(1,8,9,15)           -95.5238         estimate D2E/DX2                !
 ! D204  D(1,8,9,26)          -179.5482         estimate D2E/DX2                !
 ! D205  D(6,8,9,4)            -40.6597         estimate D2E/DX2                !
 ! D206  D(6,8,9,10)            29.1239         estimate D2E/DX2                !
 ! D207  D(6,8,9,11)          -111.7677         estimate D2E/DX2                !
 ! D208  D(6,8,9,15)          -178.4274         estimate D2E/DX2                !
 ! D209  D(6,8,9,26)            97.5482         estimate D2E/DX2                !
 ! D210  D(4,9,10,13)           97.2576         estimate D2E/DX2                !
 ! D211  D(4,9,10,24)          179.6102         estimate D2E/DX2                !
 ! D212  D(8,9,10,13)           27.8641         estimate D2E/DX2                !
 ! D213  D(8,9,10,24)          110.2167         estimate D2E/DX2                !
 ! D214  D(11,9,10,13)        -178.6847         estimate D2E/DX2                !
 ! D215  D(11,9,10,24)         -96.3321         estimate D2E/DX2                !
 ! D216  D(15,9,10,13)        -110.8158         estimate D2E/DX2                !
 ! D217  D(15,9,10,24)         -28.4632         estimate D2E/DX2                !
 ! D218  D(26,9,10,13)         -40.7822         estimate D2E/DX2                !
 ! D219  D(26,9,10,24)          41.5704         estimate D2E/DX2                !
 ! D220  D(4,9,11,12)          -97.3445         estimate D2E/DX2                !
 ! D221  D(4,9,11,27)          179.4246         estimate D2E/DX2                !
 ! D222  D(8,9,11,12)          -27.1383         estimate D2E/DX2                !
 ! D223  D(8,9,11,27)         -110.3692         estimate D2E/DX2                !
 ! D224  D(10,9,11,12)        -179.9383         estimate D2E/DX2                !
 ! D225  D(10,9,11,27)          96.8308         estimate D2E/DX2                !
 ! D226  D(15,9,11,12)          41.0805         estimate D2E/DX2                !
 ! D227  D(15,9,11,27)         -42.1504         estimate D2E/DX2                !
 ! D228  D(26,9,11,12)         109.1243         estimate D2E/DX2                !
 ! D229  D(26,9,11,27)          25.8934         estimate D2E/DX2                !
 ! D230  D(4,9,15,12)           27.6108         estimate D2E/DX2                !
 ! D231  D(4,9,15,27)          110.9065         estimate D2E/DX2                !
 ! D232  D(8,9,15,12)           97.5215         estimate D2E/DX2                !
 ! D233  D(8,9,15,27)         -179.1828         estimate D2E/DX2                !
 ! D234  D(10,9,15,12)        -111.1484         estimate D2E/DX2                !
 ! D235  D(10,9,15,27)         -27.8527         estimate D2E/DX2                !
 ! D236  D(11,9,15,12)         -41.1954         estimate D2E/DX2                !
 ! D237  D(11,9,15,27)          42.1003         estimate D2E/DX2                !
 ! D238  D(26,9,15,12)         179.6663         estimate D2E/DX2                !
 ! D239  D(26,9,15,27)         -97.0381         estimate D2E/DX2                !
 ! D240  D(4,9,26,13)          -27.8598         estimate D2E/DX2                !
 ! D241  D(4,9,26,24)         -110.7463         estimate D2E/DX2                !
 ! D242  D(8,9,26,13)          -96.0379         estimate D2E/DX2                !
 ! D243  D(8,9,26,24)         -178.9245         estimate D2E/DX2                !
 ! D244  D(10,9,26,13)          41.1677         estimate D2E/DX2                !
 ! D245  D(10,9,26,24)         -41.7189         estimate D2E/DX2                !
 ! D246  D(11,9,26,13)         113.5079         estimate D2E/DX2                !
 ! D247  D(11,9,26,24)          30.6213         estimate D2E/DX2                !
 ! D248  D(15,9,26,13)         179.9922         estimate D2E/DX2                !
 ! D249  D(15,9,26,24)          97.1057         estimate D2E/DX2                !
 ! D250  D(9,10,13,7)          -97.3794         estimate D2E/DX2                !
 ! D251  D(9,10,13,16)         -28.1481         estimate D2E/DX2                !
 ! D252  D(9,10,13,26)          41.2249         estimate D2E/DX2                !
 ! D253  D(9,10,13,37)         179.9076         estimate D2E/DX2                !
 ! D254  D(9,10,13,38)         108.1093         estimate D2E/DX2                !
 ! D255  D(24,10,13,7)        -179.7533         estimate D2E/DX2                !
 ! D256  D(24,10,13,16)       -110.522          estimate D2E/DX2                !
 ! D257  D(24,10,13,26)        -41.149          estimate D2E/DX2                !
 ! D258  D(24,10,13,37)         97.5336         estimate D2E/DX2                !
 ! D259  D(24,10,13,38)         25.7354         estimate D2E/DX2                !
 ! D260  D(9,10,24,17)        -120.2749         estimate D2E/DX2                !
 ! D261  D(9,10,24,25)        -178.517          estimate D2E/DX2                !
 ! D262  D(9,10,24,26)         -42.1904         estimate D2E/DX2                !
 ! D263  D(9,10,24,28)          95.2611         estimate D2E/DX2                !
 ! D264  D(9,10,24,29)          26.2324         estimate D2E/DX2                !
 ! D265  D(13,10,24,17)        -36.7757         estimate D2E/DX2                !
 ! D266  D(13,10,24,25)        -95.0178         estimate D2E/DX2                !
 ! D267  D(13,10,24,26)         41.3088         estimate D2E/DX2                !
 ! D268  D(13,10,24,28)        178.7602         estimate D2E/DX2                !
 ! D269  D(13,10,24,29)        109.7315         estimate D2E/DX2                !
 ! D270  D(9,11,12,2)           25.4549         estimate D2E/DX2                !
 ! D271  D(9,11,12,5)           95.1935         estimate D2E/DX2                !
 ! D272  D(9,11,12,14)        -112.8246         estimate D2E/DX2                !
 ! D273  D(9,11,12,15)         -41.6151         estimate D2E/DX2                !
 ! D274  D(9,11,12,52)         178.8629         estimate D2E/DX2                !
 ! D275  D(27,11,12,2)         109.3926         estimate D2E/DX2                !
 ! D276  D(27,11,12,5)         179.1312         estimate D2E/DX2                !
 ! D277  D(27,11,12,14)        -28.8869         estimate D2E/DX2                !
 ! D278  D(27,11,12,15)         42.3226         estimate D2E/DX2                !
 ! D279  D(27,11,12,52)        -97.1994         estimate D2E/DX2                !
 ! D280  D(9,11,27,15)          42.5509         estimate D2E/DX2                !
 ! D281  D(9,11,27,28)         -94.7475         estimate D2E/DX2                !
 ! D282  D(9,11,27,29)         -24.035          estimate D2E/DX2                !
 ! D283  D(9,11,27,30)         -91.8935         estimate D2E/DX2                !
 ! D284  D(9,11,27,55)        -178.8185         estimate D2E/DX2                !
 ! D285  D(9,11,27,56)         112.0335         estimate D2E/DX2                !
 ! D286  D(12,11,27,15)        -42.1699         estimate D2E/DX2                !
 ! D287  D(12,11,27,28)       -179.4682         estimate D2E/DX2                !
 ! D288  D(12,11,27,29)       -108.7557         estimate D2E/DX2                !
 ! D289  D(12,11,27,30)       -176.6143         estimate D2E/DX2                !
 ! D290  D(12,11,27,55)         96.4607         estimate D2E/DX2                !
 ! D291  D(12,11,27,56)         27.3128         estimate D2E/DX2                !
 ! D292  D(2,12,14,51)         103.0171         estimate D2E/DX2                !
 ! D293  D(2,12,14,54)        -174.8983         estimate D2E/DX2                !
 ! D294  D(5,12,14,51)          33.5406         estimate D2E/DX2                !
 ! D295  D(5,12,14,54)         115.6252         estimate D2E/DX2                !
 ! D296  D(11,12,14,51)       -106.326          estimate D2E/DX2                !
 ! D297  D(11,12,14,54)        -24.2415         estimate D2E/DX2                !
 ! D298  D(15,12,14,51)       -175.8615         estimate D2E/DX2                !
 ! D299  D(15,12,14,54)        -93.7769         estimate D2E/DX2                !
 ! D300  D(52,12,14,51)        -36.6161         estimate D2E/DX2                !
 ! D301  D(52,12,14,54)         45.4685         estimate D2E/DX2                !
 ! D302  D(2,12,15,9)          -95.4415         estimate D2E/DX2                !
 ! D303  D(2,12,15,27)        -179.3216         estimate D2E/DX2                !
 ! D304  D(5,12,15,9)          -27.6682         estimate D2E/DX2                !
 ! D305  D(5,12,15,27)        -111.5482         estimate D2E/DX2                !
 ! D306  D(11,12,15,9)          41.6205         estimate D2E/DX2                !
 ! D307  D(11,12,15,27)        -42.2596         estimate D2E/DX2                !
 ! D308  D(14,12,15,9)        -178.3958         estimate D2E/DX2                !
 ! D309  D(14,12,15,27)         97.7241         estimate D2E/DX2                !
 ! D310  D(52,12,15,9)         111.9056         estimate D2E/DX2                !
 ! D311  D(52,12,15,27)         28.0256         estimate D2E/DX2                !
 ! D312  D(2,12,52,51)         -30.4999         estimate D2E/DX2                !
 ! D313  D(2,12,52,54)        -113.1322         estimate D2E/DX2                !
 ! D314  D(5,12,52,51)         -99.5777         estimate D2E/DX2                !
 ! D315  D(5,12,52,54)         177.79           estimate D2E/DX2                !
 ! D316  D(11,12,52,51)        177.5989         estimate D2E/DX2                !
 ! D317  D(11,12,52,54)         94.9666         estimate D2E/DX2                !
 ! D318  D(14,12,52,51)         37.2405         estimate D2E/DX2                !
 ! D319  D(14,12,52,54)        -45.3917         estimate D2E/DX2                !
 ! D320  D(15,12,52,51)        108.6952         estimate D2E/DX2                !
 ! D321  D(15,12,52,54)         26.0629         estimate D2E/DX2                !
 ! D322  D(7,13,16,6)           41.8054         estimate D2E/DX2                !
 ! D323  D(7,13,16,18)         -41.5917         estimate D2E/DX2                !
 ! D324  D(10,13,16,6)         -28.3377         estimate D2E/DX2                !
 ! D325  D(10,13,16,18)       -111.7349         estimate D2E/DX2                !
 ! D326  D(26,13,16,6)         -97.7549         estimate D2E/DX2                !
 ! D327  D(26,13,16,18)        178.8479         estimate D2E/DX2                !
 ! D328  D(37,13,16,6)         110.6122         estimate D2E/DX2                !
 ! D329  D(37,13,16,18)         27.2151         estimate D2E/DX2                !
 ! D330  D(38,13,16,6)        -178.9012         estimate D2E/DX2                !
 ! D331  D(38,13,16,18)         97.7017         estimate D2E/DX2                !
 ! D332  D(7,13,26,9)           29.1559         estimate D2E/DX2                !
 ! D333  D(7,13,26,24)         111.6703         estimate D2E/DX2                !
 ! D334  D(10,13,26,9)         -41.2634         estimate D2E/DX2                !
 ! D335  D(10,13,26,24)         41.251          estimate D2E/DX2                !
 ! D336  D(16,13,26,9)          95.9036         estimate D2E/DX2                !
 ! D337  D(16,13,26,24)        178.418          estimate D2E/DX2                !
 ! D338  D(37,13,26,9)        -113.4884         estimate D2E/DX2                !
 ! D339  D(37,13,26,24)        -30.9741         estimate D2E/DX2                !
 ! D340  D(38,13,26,9)         179.8813         estimate D2E/DX2                !
 ! D341  D(38,13,26,24)        -97.6044         estimate D2E/DX2                !
 ! D342  D(7,13,37,36)         177.9947         estimate D2E/DX2                !
 ! D343  D(7,13,37,39)         100.5027         estimate D2E/DX2                !
 ! D344  D(10,13,37,36)        -98.5073         estimate D2E/DX2                !
 ! D345  D(10,13,37,39)       -175.9993         estimate D2E/DX2                !
 ! D346  D(16,13,37,36)        109.8039         estimate D2E/DX2                !
 ! D347  D(16,13,37,39)         32.3118         estimate D2E/DX2                !
 ! D348  D(26,13,37,36)        -27.2545         estimate D2E/DX2                !
 ! D349  D(26,13,37,39)       -104.7466         estimate D2E/DX2                !
 ! D350  D(38,13,37,36)         38.8802         estimate D2E/DX2                !
 ! D351  D(38,13,37,39)        -38.6118         estimate D2E/DX2                !
 ! D352  D(7,13,38,36)        -108.1332         estimate D2E/DX2                !
 ! D353  D(7,13,38,39)         -30.4382         estimate D2E/DX2                !
 ! D354  D(10,13,38,36)         33.8705         estimate D2E/DX2                !
 ! D355  D(10,13,38,39)        111.5656         estimate D2E/DX2                !
 ! D356  D(16,13,38,36)       -176.1818         estimate D2E/DX2                !
 ! D357  D(16,13,38,39)        -98.4868         estimate D2E/DX2                !
 ! D358  D(26,13,38,36)        101.2707         estimate D2E/DX2                !
 ! D359  D(26,13,38,39)        178.9657         estimate D2E/DX2                !
 ! D360  D(37,13,38,36)        -38.9353         estimate D2E/DX2                !
 ! D361  D(37,13,38,39)         38.7598         estimate D2E/DX2                !
 ! D362  D(12,14,51,22)        -76.9439         estimate D2E/DX2                !
 ! D363  D(12,14,51,52)         41.7733         estimate D2E/DX2                !
 ! D364  D(12,14,51,60)        156.3049         estimate D2E/DX2                !
 ! D365  D(12,14,54,52)        -47.8032         estimate D2E/DX2                !
 ! D366  D(12,14,54,53)       -152.1294         estimate D2E/DX2                !
 ! D367  D(12,14,54,55)         21.167          estimate D2E/DX2                !
 ! D368  D(12,14,54,56)         99.0753         estimate D2E/DX2                !
 ! D369  D(12,14,54,57)        102.0585         estimate D2E/DX2                !
 ! D370  D(9,15,27,11)         -42.5745         estimate D2E/DX2                !
 ! D371  D(9,15,27,28)          27.3807         estimate D2E/DX2                !
 ! D372  D(9,15,27,29)          94.3614         estimate D2E/DX2                !
 ! D373  D(9,15,27,30)          94.7693         estimate D2E/DX2                !
 ! D374  D(9,15,27,55)        -112.5251         estimate D2E/DX2                !
 ! D375  D(9,15,27,56)         178.02           estimate D2E/DX2                !
 ! D376  D(12,15,27,11)         42.2946         estimate D2E/DX2                !
 ! D377  D(12,15,27,28)        112.2498         estimate D2E/DX2                !
 ! D378  D(12,15,27,29)        179.2305         estimate D2E/DX2                !
 ! D379  D(12,15,27,30)        179.6383         estimate D2E/DX2                !
 ! D380  D(12,15,27,55)        -27.656          estimate D2E/DX2                !
 ! D381  D(12,15,27,56)        -97.111          estimate D2E/DX2                !
 ! D382  D(6,16,18,7)          -42.1684         estimate D2E/DX2                !
 ! D383  D(6,16,18,19)          23.7712         estimate D2E/DX2                !
 ! D384  D(6,16,18,20)          95.2283         estimate D2E/DX2                !
 ! D385  D(6,16,18,40)        -115.2387         estimate D2E/DX2                !
 ! D386  D(6,16,18,62)        -179.6106         estimate D2E/DX2                !
 ! D387  D(13,16,18,7)          41.6144         estimate D2E/DX2                !
 ! D388  D(13,16,18,19)        107.554          estimate D2E/DX2                !
 ! D389  D(13,16,18,20)        179.0111         estimate D2E/DX2                !
 ! D390  D(13,16,18,40)        -31.4559         estimate D2E/DX2                !
 ! D391  D(13,16,18,62)        -95.8278         estimate D2E/DX2                !
 ! D392  D(33,17,24,10)       -105.4834         estimate D2E/DX2                !
 ! D393  D(33,17,24,25)        -45.0138         estimate D2E/DX2                !
 ! D394  D(33,17,24,26)        178.4435         estimate D2E/DX2                !
 ! D395  D(33,17,24,28)         26.3696         estimate D2E/DX2                !
 ! D396  D(33,17,24,29)         97.666          estimate D2E/DX2                !
 ! D397  D(36,17,24,10)        -14.1824         estimate D2E/DX2                !
 ! D398  D(36,17,24,25)         46.2872         estimate D2E/DX2                !
 ! D399  D(36,17,24,26)        -90.2555         estimate D2E/DX2                !
 ! D400  D(36,17,24,28)        117.6706         estimate D2E/DX2                !
 ! D401  D(36,17,24,29)       -171.033          estimate D2E/DX2                !
 ! D402  D(24,17,33,25)         47.6879         estimate D2E/DX2                !
 ! D403  D(24,17,33,30)        -51.0563         estimate D2E/DX2                !
 ! D404  D(24,17,33,32)        -97.5032         estimate D2E/DX2                !
 ! D405  D(24,17,33,34)        -32.9262         estimate D2E/DX2                !
 ! D406  D(24,17,33,59)        158.3303         estimate D2E/DX2                !
 ! D407  D(36,17,33,25)        -34.8613         estimate D2E/DX2                !
 ! D408  D(36,17,33,30)       -133.6055         estimate D2E/DX2                !
 ! D409  D(36,17,33,32)        179.9476         estimate D2E/DX2                !
 ! D410  D(36,17,33,34)       -115.4754         estimate D2E/DX2                !
 ! D411  D(36,17,33,59)         75.7811         estimate D2E/DX2                !
 ! D412  D(24,17,36,25)        -47.5032         estimate D2E/DX2                !
 ! D413  D(24,17,36,35)       -150.6185         estimate D2E/DX2                !
 ! D414  D(24,17,36,37)         11.6646         estimate D2E/DX2                !
 ! D415  D(24,17,36,38)         93.9244         estimate D2E/DX2                !
 ! D416  D(24,17,36,39)         94.1718         estimate D2E/DX2                !
 ! D417  D(33,17,36,25)         33.8943         estimate D2E/DX2                !
 ! D418  D(33,17,36,35)        -69.221          estimate D2E/DX2                !
 ! D419  D(33,17,36,37)         93.0621         estimate D2E/DX2                !
 ! D420  D(33,17,36,38)        175.3219         estimate D2E/DX2                !
 ! D421  D(33,17,36,39)        175.5693         estimate D2E/DX2                !
 ! D422  D(7,18,19,42)          95.9423         estimate D2E/DX2                !
 ! D423  D(16,18,19,42)         29.5657         estimate D2E/DX2                !
 ! D424  D(20,18,19,42)        -44.7074         estimate D2E/DX2                !
 ! D425  D(40,18,19,42)       -178.4446         estimate D2E/DX2                !
 ! D426  D(62,18,19,42)       -118.1478         estimate D2E/DX2                !
 ! D427  D(7,18,20,42)         -25.3066         estimate D2E/DX2                !
 ! D428  D(16,18,20,42)       -100.2888         estimate D2E/DX2                !
 ! D429  D(19,18,20,42)         39.0693         estimate D2E/DX2                !
 ! D430  D(40,18,20,42)        107.5862         estimate D2E/DX2                !
[...]
 4815,0.00020662,-0.00038469,0.00000308,0.00006712,-0.00011202,0.233240
 39,-0.00035746,0.00020936,-0.00032679,0.00014179,-0.00032998,0.0002529
 2,0.00021719,0.00005553,0.00007310,-0.00003694,-0.00003409,-0.00002481
 ,-0.00007992,-0.00019850,0.00023035,-0.00000446,0.00001973,-0.00004884
 ,-0.00001518,0.00000589,0.00000043,-0.00002581,0.00006092,0.00004287,-
 0.00001347,-0.00014073,0.00033880,-0.00001145,0.00000261,-0.00002787,-
 0.00006472,-0.00029725,-0.00023217,0.00143191,0.00092685,-0.00199381,0
 .00002815,-0.00004290,0.00005263,0.00344335,0.00082771,0.00253693,-0.0
 0002442,-0.00005419,0.00008625,-0.00001230,0.00001028,0.00000307,0.000
 00087,0.00000245,0.00000709,0.00001287,0.00001138,-0.00000309,0.000001
 14,-0.00000444,0.00002958,0.00000723,0.00000041,-0.00000555,-0.0007604
 2,0.00108242,0.00008224,-0.00298205,0.00075704,-0.00132684,0.00030041,
 -0.00017045,-0.00019402,0.00002749,0.00001997,0.00000302,-0.00000563,-
 0.00000494,-0.00000508,-0.00000746,0.00002261,-0.00003812,-0.00058973,
 -0.00016663,0.00033390,0.00005183,-0.00000335,0.00003107,0.00000228,-0
 .00000238,-0.00000142,0.00005184,0.00003189,-0.00000221,-0.00001782,0.
 00000023,-0.00003654,-0.00000084,-0.00002126,0.00000179,-0.00000961,-0
 .00000128,-0.00004614,-0.00001260,0.00001972,0.00000175,0.00000745,-0.
 00001929,0.00002872,-0.00000816,0.00001948,-0.00003050,-0.00000734,-0.
 00000799,-0.00000542,-0.00000129,0.00001253,0.00000420,-0.00001398,0.0
 0002441,-0.00003330,-0.00000018,0.00000088,0.00001046,0.00001752,-0.00
 002467,0.00003062,-0.00006242,-0.00000856,-0.00001280,0.00001208,0.000
 02969,0.00000139,0.00000922,-0.00001331,-0.00001134,-0.00006326,-0.000
 10986,0.00010708,0.00009604,-0.00006287,0.00001368,0.00005558,0.000024
 94,-0.00005307,-0.00022988,-0.00001608,-0.00001924,0.00024303,0.000074
 19,-0.00033479,0.00003483,-0.00001130,-0.00002153,0.05547130,-0.027393
 33,0.00811725,-0.00310109,0.00333658,0.00396725,-0.00437364,-0.0016238
 7,0.00239169,0.00469159,-0.00177763,-0.00141759,-0.00008922,-0.0003160
 0,-0.00027769,0.00026108,-0.00007522,0.00011883,0.00009706,0.00004100,
 0.00049046,-0.00037824,0.00004311,-0.00001092,0.00000692,-0.00001874,0
 .00003709,-0.05339476,0.02527473,0.00037915,-0.00024358,0.00013703,-0.
 00015145,-0.00034426,-0.00040616,0.00001364,-0.00007682,-0.00017618,0.
 00007049,0.00005306,0.00001088,-0.00019676,0.00054526,-0.00006259,0.00
 006713,-0.00003345,0.00004493,0.00002560,-0.00000270,-0.00000055,0.000
 02780,0.00006572,-0.00002442,-0.00001603,0.00026243,-0.00048142,0.0000
 2346,-0.00002005,0.00006581,-0.00010501,0.00027845,0.00001758,-0.00019
 504,-0.00170431,0.00231935,-0.00004459,0.00006215,-0.00005929,0.002114
 82,0.00254408,-0.00009117,-0.00010257,-0.00052848,-0.00041694,0.000024
 39,-0.00001297,0.00000034,-0.00000696,-0.00000713,-0.00000626,-0.00000
 777,-0.00001255,-0.00000281,-0.00000132,-0.00000674,-0.00002162,-0.000
 01193,0.00000381,0.00001734,-0.00210076,-0.00045834,0.00163033,0.00588
 907,0.00056712,0.00000478,0.00005386,-0.00051054,-0.00001080,-0.000012
 90,0.00001015,-0.00001387,0.00000361,0.00000522,-0.00000011,0.00000517
 ,-0.00003080,0.00002214,0.00088624,0.00025277,-0.00056602,-0.00006294,
 0.00000753,0.00000753,-0.00005628,0.00004764,0.00002322,-0.00003686,-0
 .00001393,0.00005960,0.00001638,-0.00002853,0.00007020,-0.00000711,0.0
 0002472,-0.00001331,0.00002752,0.00001087,0.00005998,0.00001922,-0.000
 03689,-0.00001498,-0.00000734,0.00002399,-0.00003672,0.00000797,-0.000
 02508,0.00003905,0.00000907,0.00000866,0.00000526,0.00000327,-0.000015
 84,-0.00000563,0.00001925,-0.00003142,0.00004135,-0.00000109,-0.000002
 59,-0.00001181,-0.00002150,0.00003109,-0.00003869,0.00006313,0.0000307
 7,-0.00003703,-0.00003104,-0.00004518,-0.00000488,-0.00005276,0.000054
 80,0.00003236,0.00020407,-0.00009991,-0.00002300,-0.00010418,0.0001441
 5,0.00006273,-0.00008096,-0.00003098,0.00003114,-0.00008915,0.00005213
 ,0.00009873,-0.00020693,0.00018752,0.00007688,-0.00005527,0.00001404,-
 0.00004176,-0.04068815,0.00713019,-0.01969075,-0.00250978,0.00388089,-
 0.00015122,0.00621986,0.00091915,-0.00368203,-0.00898665,-0.00053797,0
 .00063521,-0.00009026,0.00041583,-0.00003441,0.00003096,-0.00024548,-0
 .00040418,-0.00001438,0.00043192,-0.00052043,0.00055606,-0.00010897,0.
 00008544,-0.00000902,0.00002336,-0.00004382,0.03935052,-0.01286275,0.0
 2146010,-0.00026373,0.00051805,-0.00059637,-0.00001903,-0.00000996,-0.
 00000734,0.00033943,-0.00026239,0.00037508,0.00020366,0.00017409,-0.00
 011961,-0.00002523,0.00001282,0.00001740,-0.00068315,-0.00186957,0.001
 96207,0.00103634,-0.00016950,-0.00017838,0.00009445,0.00002292,-0.0000
 6961,-0.00022579,0.00015009,-0.00020588,-0.00000081,-0.00003537,-0.000
 04547,0.00005017,0.00000657,-0.00001943,-0.00018604,0.00000758,0.00001
 275,0.00010794,-0.00022499,0.00039367,0.00000810,0.00001347,0.00000776
 ,0.00005906,0.00000538,-0.00003529,0.00056713,0.00010502,-0.00010114,-
 0.00001511,0.00001636,0.00002383,-0.00391446,-0.00366799,0.00363849,0.
 00621962,0.00177312,0.00380637,0.00093255,-0.00256585,0.00026587,0.000
 00789,-0.00016665,0.00011939,-0.00011573,0.00001609,0.00004819,-0.0000
 2054,-0.00005150,-0.00000817,0.00005394,-0.00001654,-0.00000520,-0.000
 03697,-0.00002710,0.00001322,0.00000440,0.00005766,-0.00005637,-0.0001
 1427,0.,0.00001700,0.00002624,0.00001161,-0.00003423,0.00001770,0.0000
 2806,-0.00001768,0.00001527,0.00001929,0.00001846,-0.00002256,0.000005
 54,0.00001841,0.00000329,-0.00005482,0.00001794,0.00006555,0.00004015,
 -0.00019039,-0.00003865,0.00004973,0.00000668,0.00002749,-0.00008451,0
 .00012756,-0.00002328,0.00009398,-0.00010010,0.00004436,-0.00003419,-0
 .00003426,0.00006879,0.00007227,-0.00000931,-0.00009357,0.00003807,-0.
 00009403,0.00016867,0.00013865,0.00036643,0.00007596,-0.00013825,0.000
 18226,-0.17060717,-0.05952239,0.10933020,-0.00050646,-0.00126331,-0.00
 182689,-0.00138750,0.00269183,-0.00045166,-0.00609280,0.00151265,-0.00
 106344,0.00025734,-0.00035818,0.00024047,0.00023120,0.00182101,-0.0035
 2183,-0.00006625,-0.00007009,0.00024718,0.00000408,0.00003480,0.000017
 59,0.00018544,0.00009679,-0.00019510,0.00020795,0.00005595,-0.00001451
 ,-0.00000365,-0.00001201,-0.00002044,-0.00009068,0.00002729,-0.0000250
 9,0.00009215,-0.00007921,0.00007848,-0.00000270,-0.00000809,-0.0000159
 9,0.00001249,0.00001685,-0.00000396,0.00013523,0.00001427,-0.00001057,
 -0.00013768,0.00001048,-0.00000555,0.00001683,-0.00009014,0.00015568,-
 0.00019292,0.00003662,-0.00005100,0.17368907,-0.00001629,0.00009563,-0
 .00015140,0.00000561,-0.00002080,0.00004136,-0.00009974,0.00022842,0.0
 0021610,0.00006193,0.00004394,0.00007851,0.00001346,-0.00000798,0.0000
 0873,-0.00139146,0.00040025,-0.00002857,-0.00027433,-0.00061857,0.0000
 9475,-0.00001315,-0.00015428,-0.00000181,-0.00009721,0.00003073,0.0000
 0771,0.00005255,0.00003548,-0.00002482,0.00000955,-0.00001303,0.000010
 10,-0.00002585,0.00000736,-0.00001001,-0.00012942,0.00007904,-0.000155
 41,0.00000834,0.00000144,0.00000747,0.00001666,-0.00000403,0.00000119,
 0.00012708,-0.00002043,0.00006522,-0.00000861,0.00001031,0.00000948,-0
 .00056888,0.00194165,0.00081158,0.00237788,0.00010203,0.00475892,-0.00
 222349,0.00027565,0.00076195,-0.00007108,-0.00009147,-0.00000038,0.000
 00674,0.00002154,0.00000359,-0.00004127,-0.00005697,-0.00002350,0.0000
 0675,-0.00004673,0.00002066,-0.00002257,0.00001395,-0.00000361,0.00003
 830,0.00000596,-0.00000339,-0.00004334,0.00001762,-0.00003364,0.000013
 09,0.00001311,-0.00000088,0.00000944,0.00000999,0.00000132,0.00002584,
 -0.00003012,0.00000265,-0.00003503,0.00002684,-0.00001681,-0.00001192,
 -0.00000071,0.00000181,0.00009418,-0.00000236,-0.00008211,-0.00003355,
 0.00003133,-0.00000405,0.00001174,-0.00004187,0.00005959,-0.00002553,0
 .00000408,-0.00008137,0.00005299,0.00000769,-0.00000529,-0.00003141,-0
 .00006757,0.00005095,0.00007455,0.00012330,-0.00012464,-0.00008124,-0.
 00001378,0.00026896,0.00003318,-0.00006686,0.00006575,-0.05994244,-0.0
 3852282,0.03801785,-0.00096249,0.00034696,0.00112315,-0.00086005,0.003
 92172,-0.00079202,0.00019827,-0.00109476,0.00163766,0.00007310,-0.0003
 5283,-0.00031067,0.00206303,0.00048124,-0.00061333,-0.00000913,0.00005
 568,0.00007001,0.00005359,-0.00000173,-0.00003164,0.00010142,0.0000326
 6,-0.00013296,0.00002898,-0.00001803,0.00006047,-0.00000499,0.00000414
 ,-0.00000359,-0.00003296,0.00000509,0.00000268,0.00004551,-0.00000140,
 -0.00002517,-0.00000991,-0.00000382,0.00000484,-0.00000428,-0.00000266
 ,0.00000657,0.00006285,-0.00000192,0.00002579,-0.00005769,0.00000486,-
 0.00000347,-0.00000047,-0.00003052,0.00005285,-0.00004807,0.00001167,-
 0.00002414,0.06143733,0.03297075,0.00010344,-0.00017914,0.00030247,-0.
 00000522,0.00000149,-0.00001922,-0.00020060,-0.00045616,-0.00040749,-0
 .00016210,-0.00010288,-0.00011236,-0.00001012,0.00002379,-0.00002697,0
 .00214330,0.00050335,0.00039149,-0.00034848,0.00023041,0.00038715,0.00
 009758,0.00009103,0.00000601,0.00020870,-0.00001719,0.00004862,-0.0000
 6125,-0.00005042,0.00002504,-0.00002018,0.00001190,-0.00000272,0.00007
 371,-0.00000415,0.00000338,0.00022528,0.00008483,-0.00007171,-0.000003
 61,-0.00000011,-0.00001413,-0.00003142,0.00000598,0.00000438,-0.000080
 21,0.00001381,0.00007024,0.00001734,-0.00001520,-0.00001166,0.00048212
 ,-0.00122171,-0.00036804,0.00517260,0.00173290,-0.00922070,-0.00049767
 ,0.00227714,0.00084007,0.00004425,0.00007484,-0.00008581,0.00003376,-0
 .00002882,-0.00001540,-0.00001089,0.00002903,0.00003917,-0.00003204,0.
 00004097,-0.00001643,0.00004606,0.00000570,-0.00000400,-0.00004623,-0.
 00002483,0.00003799,0.00008016,-0.00003177,0.00003491,-0.00002542,-0.0
 0001566,0.00001041,-0.00001813,-0.00001677,0.00000366,-0.00003634,0.00
 003433,-0.00000725,0.00004924,-0.00003414,0.00001385,0.00001310,0.0000
 1611,-0.00000542,-0.00013308,-0.00001670,0.00015106,0.00005078,-0.0000
 5192,0.00000190,-0.00002023,0.00007230,-0.00009869,0.00001369,-0.00006
 476,0.00008621,0.00000631,0.00001514,0.00003225,-0.00005662,0.00000566
 ,-0.00004986,-0.00000046,-0.00007046,0.00021439,-0.00014068,-0.0001699
 8,-0.00026296,-0.00006828,0.00011026,-0.00015468,0.10394029,0.04366833
 ,-0.08794025,0.00195464,0.00119640,0.00232739,0.00256956,-0.00297205,-
 0.00041375,0.00029074,0.00079032,-0.00277425,0.00004847,0.00044513,0.0
 0034592,-0.00315859,-0.00061136,0.00168465,0.00003629,0.00006282,-0.00
 006884,0.00001377,-0.00007055,-0.00001980,-0.00019185,-0.00010259,0.00
 018335,-0.00011031,0.00001685,-0.00004902,0.00000641,0.00000038,0.0000
 0810,0.00006469,-0.00001358,0.00000348,-0.00007929,0.00002748,0.000003
 68,0.00001118,0.00000530,-0.00000304,0.00000175,-0.00000107,-0.0000047
 7,-0.00011355,-0.00000231,-0.00002497,0.00010663,-0.00000897,0.0000060
 6,-0.00000419,0.00006292,-0.00010681,0.00011055,-0.00002562,0.00003825
 ,-0.11235242,-0.04553651,0.09516935,0.00002463,-0.00002847,-0.00001764
 ,0.00000402,0.00000060,0.00000101,0.00000753,0.00002153,-0.00002459,-0
 .00005486,-0.00005172,0.00005900,-0.00000589,-0.00000757,0.00000099,0.
 00056600,-0.00012893,0.00001197,-0.00060536,-0.00089957,-0.00068170,0.
 00004606,-0.00008378,0.00011735,0.00013754,0.00003020,-0.00002656,-0.0
 0004721,-0.00002076,0.00003462,-0.00000003,-0.00000781,0.00003132,0.00
 003372,-0.00000098,0.00000922,-0.00043666,0.00420012,0.00138336,-0.000
 00089,-0.00000371,-0.00000045,-0.00002509,-0.00000903,0.00002589,-0.00
 212880,-0.00046904,-0.00357918,-0.00009816,0.00000746,-0.00029713,-0.0
 1457456,0.01851540,-0.00115196,0.00122885,0.00084971,-0.00140365,-0.00
 091172,-0.00348307,0.00099056,-0.00001594,0.00001501,-0.00001316,0.000
 02565,0.00000612,-0.00001931,-0.00000892,-0.00000133,0.00000009,-0.000
 14896,-0.00000005,0.00022702,-0.00006198,0.00017008,0.00000053,0.00042
 070,-0.00014260,0.00007989,0.00000177,0.00000050,-0.00005373,-0.000016
 37,-0.00000199,0.00002250,-0.00003568,-0.00002033,0.00000962,0.0000171
 3,0.00000821,0.00001637,-0.00002532,0.00001929,-0.00002280,-0.00000104
 ,0.00002967,0.00001762,0.00029851,-0.00010207,-0.00003796,-0.00009643,
 0.00003593,-0.00003279,-0.00005716,0.00005889,-0.00039908,0.00012855,0
 .00013836,0.00028337,-0.00230331,0.00131104,-0.00072860,-0.00525612,-0
 .00156998,0.00181405,-0.03124083,0.00796077,0.03165560,-0.00267659,-0.
 02720030,-0.02160527,0.00103681,-0.00253465,0.00040098,0.00201935,0.00
 061445,0.00120100,0.00022350,0.00005617,0.00015341,-0.00025195,0.00002
 147,-0.00008093,-0.00003822,0.00011312,-0.00017655,-0.00001138,0.00001
 907,-0.00000937,-0.00008730,-0.00000285,0.00007398,0.00000479,0.000004
 82,0.00000697,0.00000529,-0.00000054,0.00000354,-0.00001445,-0.0000068
 7,0.00001196,-0.00003008,-0.00002530,0.00002416,0.00000144,0.00000129,
 0.00000585,-0.00000129,-0.00000709,0.00001088,0.00000565,0.00002730,-0
 .00004049,-0.00000424,-0.00000414,0.00000633,-0.00000525,-0.00000286,0
 .00000780,0.00000505,-0.00001083,0.00003229,-0.00000616,0.00000161,-0.
 00000078,-0.00001644,-0.00000542,0.00001554,0.00001928,-0.00000292,0.0
 0000403,-0.00014305,0.00007393,0.00000306,0.05518187,0.00010259,-0.000
 00158,0.00001886,-0.00002161,-0.00000646,0.00001426,0.00001525,0.00002
 429,-0.00003690,-0.00005051,0.00022766,0.00016604,0.00000862,-0.000033
 94,-0.00000089,-0.00009476,-0.00149962,-0.00123693,0.00130965,-0.00107
 595,0.00038049,0.00001423,0.00068538,0.00014715,0.00005383,-0.00005034
 ,0.00017000,0.00013037,0.00013832,0.00003651,-0.00000805,-0.00002074,0
 .00003072,0.00005920,0.00000068,-0.00001354,-0.00100647,-0.00098782,-0
 .00186386,-0.00000398,-0.00001046,0.00000057,-0.00002194,0.00000207,0.
 00001680,0.00048789,0.00323851,-0.00036764,-0.00009430,0.00002972,0.00
 024025,0.01697629,-0.05871052,0.02120211,-0.00007049,-0.00043067,0.001
 01206,-0.00109781,0.00268793,0.00173292,-0.00003124,0.00005552,-0.0000
 2409,0.00005503,0.00000899,-0.00003977,0.00000159,0.00000540,0.0000041
 6,0.00018265,0.00003486,-0.00007080,-0.00027472,0.00015352,-0.00004700
 ,-0.00004140,-0.00028094,-0.00020919,0.00003175,0.00002356,-0.00004582
 ,-0.00000450,0.00001902,0.00003130,-0.00001918,-0.00002480,0.00004291,
 0.00007493,-0.00009357,0.00003341,-0.00004898,0.00004701,-0.00004408,-
 0.00007306,0.00006882,-0.00002408,0.00019264,-0.00001908,-0.00012439,-
 0.00006285,0.00003913,-0.00000590,0.00015139,0.00039996,-0.00009160,-0
 .00142532,-0.00020904,-0.00012211,0.00086131,0.00179632,0.00000539,-0.
 00107162,0.00228137,0.00329079,0.01092541,-0.01545370,-0.01024472,-0.0
 2649589,-0.08335858,-0.06174575,-0.00206684,0.00225610,0.00159904,0.00
 125302,-0.00182688,-0.00039829,-0.00012716,0.00062323,0.00024710,-0.00
 069739,0.00047907,0.00003094,0.00002033,-0.00005414,-0.00027716,-0.000
 06492,0.00000912,0.00003090,-0.00008710,-0.00002167,0.00004446,0.00001
 482,0.00002773,-0.00004169,-0.00000021,-0.00001196,0.00000937,-0.00003
 489,-0.00002363,0.00004371,-0.00007839,-0.00004604,0.00004241,0.000005
 46,0.00000535,0.00001398,0.00000758,-0.00001628,0.00002597,-0.00000300
 ,0.00005013,-0.00008532,-0.00000489,-0.00001098,0.00001305,-0.00000476
 ,-0.00000399,0.00001257,-0.00000520,-0.00002889,0.00006573,0.00000175,
 0.00000070,-0.00000052,0.00002324,0.00000867,0.00000056,0.00005794,-0.
 00000913,0.00001288,-0.00034980,-0.00007406,0.00026050,0.00252444,0.14
 896733,-0.00013053,0.00008937,-0.00002995,-0.00000139,0.00000439,-0.00
 003821,0.00004217,-0.00000655,0.00003641,-0.00008287,0.00004872,-0.000
 02112,0.00001248,0.00003515,-0.00000211,-0.00051161,0.00031042,0.00055
 739,-0.00019730,0.00143773,0.00054103,0.00010545,-0.00023385,-0.000117
 11,-0.00016616,0.00003643,0.00005724,0.00007709,0.00027759,-0.00002607
 ,0.00001672,0.00002160,-0.00006904,-0.00008489,-0.00003736,0.00005313,
 -0.00149784,-0.00232728,0.00171990,0.00000240,0.00002085,-0.00000816,0
 .00001878,0.00005670,-0.00009548,-0.00073638,0.00221602,-0.00018463,0.
 00037361,0.00030543,0.00077381,-0.00322823,0.01550454,-0.01515908,-0.0
 0024378,-0.00015551,0.00000083,0.00110135,0.00534546,-0.00679836,0.000
 10961,-0.00004969,-0.00001005,-0.00009266,-0.00003099,0.00006473,-0.00
 002958,0.00000910,0.00002680,0.00011465,0.00018610,-0.00021675,0.00023
 458,0.00015164,0.00006289,0.00005662,0.00011103,0.00003117,0.00000025,
 -0.00004004,0.00012486,0.00003369,0.00002063,-0.00006861,-0.00001136,0
 .00003858,-0.00005876,-0.00010634,0.00018799,-0.00005445,0.00011730,-0
 .00009216,0.00008974,0.00007817,-0.00015223,0.00003146,-0.00064707,0.0
 0011045,0.00026639,0.00019624,-0.00011894,0.00003718,-0.00010686,0.000
 38449,0.00013859,-0.00028611,-0.00211426,-0.00093794,0.00208893,-0.001
 98903,-0.00006275,-0.00028571,0.00183136,0.00340249,0.03202399,-0.0076
 1856,-0.05165019,-0.02033929,-0.06027359,-0.03608320,0.00080388,0.0005
 9495,-0.00346241,-0.00037580,-0.00032381,0.00017108,0.00001823,0.00015
 805,-0.00007389,0.00012609,-0.00011129,-0.00003601,-0.00024037,0.00006
 622,-0.00014725,-0.00000824,-0.00001424,0.00004683,-0.00001277,-0.0000
 5133,0.00002726,-0.00000988,0.00003833,-0.00006469,-0.00003101,-0.0000
 2256,0.00000793,0.00001446,-0.00000848,0.00001271,0.00009775,0.0001072
 5,-0.00012259,-0.00000241,-0.00000699,-0.00001933,0.00002484,0.0000245
 8,-0.00004865,-0.00005817,-0.00010057,0.00016730,0.00001606,0.00002227
 ,-0.00002978,0.00000632,0.00001543,-0.00003242,-0.00005143,0.00005436,
 -0.00014735,0.00006028,-0.00000709,0.00000326,0.00003375,0.00005272,-0
 .00005578,-0.00005792,0.00000336,-0.00000267,-0.00002171,-0.00012507,-
 0.00011389,-0.00835008,0.04613217,0.10759631\\-0.00000388,-0.00000019,
 -0.00000169,0.00000259,0.00000354,0.00000104,0.00000884,-0.00000297,-0
 .00000207,0.00000377,-0.00000129,-0.00000327,0.00000633,0.00000072,0.0
 0000112,0.00000971,-0.00000921,-0.00000657,-0.00000387,-0.00000893,0.0
 0000764,-0.00000247,0.00000604,0.00001391,0.00000108,0.00000926,-0.000
 00327,-0.00000202,-0.00000325,0.00000077,0.00000167,-0.00000343,-0.000
 00338,-0.00000497,0.00000323,0.00000077,0.00001402,0.00000389,-0.00000
 616,-0.00000088,0.00000095,-0.00000481,-0.00000003,-0.00000243,0.00000
 409,-0.00000474,-0.00001557,-0.00000493,-0.00000464,-0.00000203,0.0000
 0103,0.00002368,0.00000846,0.00001549,-0.00000667,-0.00000311,-0.00001
 488,-0.00000144,-0.00000163,0.00000258,-0.00000402,-0.00001329,0.00001
 284,-0.00000458,0.00000422,-0.00001315,0.00000031,0.00000610,0.0000027
 1,-0.00000063,-0.00000355,-0.00000736,0.00000348,-0.00000205,-0.000005
 50,0.00000170,-0.00000157,0.00000351,0.00000186,-0.00000737,-0.0000018
 2,0.00000485,-0.00000179,-0.00001081,0.00001126,-0.00000574,0.00000323
 ,-0.00000657,0.00002356,0.00002728,-0.00001092,-0.00001800,0.00001060,
 0.00000107,-0.00000823,-0.00000458,-0.00000786,-0.00000102,-0.00000377
 ,0.00000214,0.00000167,-0.00000980,-0.00000260,-0.00000255,-0.00000561
 ,0.00000548,0.00000139,-0.00001696,0.00000673,0.00000182,0.00000883,0.
 00000141,0.00000952,-0.00000876,0.00000513,0.00000158,0.00003396,-0.00
 002381,-0.00002438,-0.00002087,0.00000361,0.00000448,0.00000107,0.0000
 1393,0.00001097,0.00001625,0.00000759,0.00001996,0.00000248,0.00000158
 ,-0.00000594,-0.00000475,-0.00002091,-0.00001662,-0.00000882,0.0000021
 1,0.00001603,-0.00000774,-0.00000033,0.00000100,0.00000361,-0.00002768
 ,0.00000471,0.00000042,-0.00000247,0.00000838,0.00000184,0.00001110,-0
 .00000354,0.00000620,0.00000373,-0.00000069,0.00000734,-0.00000082,-0.
 00000289,-0.00000068,0.00000351,0.00000189,-0.00000546,-0.00000860,-0.
 00000030,0.00001790,0.00000032,0.,-0.00000337,-0.00000347,-0.00000202,
 0.00000098,0.00001165,-0.00000199,0.00000210,0.00000349,-0.00000158,-0
 .00000080,-0.00000364,-0.00000003,-0.00000484,0.00000116,0.00000193,-0
 .00000222,-0.00000974,0.00000611,0.00000085,-0.00000664,0.00001780,-0.
 00001375\\\@
 The archive entry for this job was punched.


 ERROR IS THE FORCE THAT WELDS MEN TOGETHER....
 TRUTH IS COMMUNICATED TO MEN ONLY BY DEEDS OF TRUTH.
           TOLSTOI,MY RELIGION
 Job cpu time:       5 days 20 hours  6 minutes 29.9 seconds.
 Elapsed time:       0 days  2 hours 55 minutes 34.8 seconds.
 File lengths (MBytes):  RWF=  12697 Int=      0 D2E=      0 Chk=    130 Scr=      2
 Normal termination of Gaussian 16 at Tue Feb 14 09:05:32 2023.
