 Entering Gaussian System, Link 0=g16
 Initial command:
 /home/chesagar/softwares/G16_AVX2//g16/l1.exe "/home/chesagar/scratch/Gau-143276.inp" -scrdir="/home/chesagar/scratch/"
 Entering Link 1 = /home/chesagar/softwares/G16_AVX2//g16/l1.exe PID=    143277.
  
 Copyright (c) 1988-2019, Gaussian, Inc.  All Rights Reserved.
  
 This is part of the Gaussian(R) 16 program.  It is based on
 the Gaussian(R) 09 system (copyright 2009, Gaussian, Inc.),
 the Gaussian(R) 03 system (copyright 2003, Gaussian, Inc.),
 the Gaussian(R) 98 system (copyright 1998, Gaussian, Inc.),
 the Gaussian(R) 94 system (copyright 1995, Gaussian, Inc.),
 the Gaussian 92(TM) system (copyright 1992, Gaussian, Inc.),
 the Gaussian 90(TM) system (copyright 1990, Gaussian, Inc.),
 the Gaussian 88(TM) system (copyright 1988, Gaussian, Inc.),
 the Gaussian 86(TM) system (copyright 1986, Carnegie Mellon
 University), and the Gaussian 82(TM) system (copyright 1983,
 Carnegie Mellon University). Gaussian is a federally registered
 trademark of Gaussian, Inc.
  
 This software contains proprietary and confidential information,
 including trade secrets, belonging to Gaussian, Inc.
  
 This software is provided under written license and may be
 used, copied, transmitted, or stored only in accord with that
 written license.
  
 The following legend is applicable only to US Government
 contracts under FAR:
  
                    RESTRICTED RIGHTS LEGEND
  
 Use, reproduction and disclosure by the US Government is
 subject to restrictions as set forth in subparagraphs (a)
 and (c) of the Commercial Computer Software - Restricted
 Rights clause in FAR 52.227-19.
  
 Gaussian, Inc.
 340 Quinnipiac St., Bldg. 40, Wallingford CT 06492
  
  
 ---------------------------------------------------------------
 Warning -- This program may not be used in any manner that
 competes with the business of Gaussian, Inc. or will provide
 assistance to any competitor of Gaussian, Inc.  The licensee
 of this program is prohibited from giving any competitor of
 Gaussian, Inc. access to this program.  By using this program,
 the user acknowledges that Gaussian, Inc. is engaged in the
 business of creating and licensing software in the field of
 computational chemistry and represents and warrants to the
 licensee that it is not a competitor of Gaussian, Inc. and that
 it will not use this program in any manner prohibited above.
 ---------------------------------------------------------------
  

 Cite this work as:
 Gaussian 16, Revision C.01,
 M. J. Frisch, G. W. Trucks, H. B. Schlegel, G. E. Scuseria, 
 M. A. Robb, J. R. Cheeseman, G. Scalmani, V. Barone, 
 G. A. Petersson, H. Nakatsuji, X. Li, M. Caricato, A. V. Marenich, 
 J. Bloino, B. G. Janesko, R. Gomperts, B. Mennucci, H. P. Hratchian, 
 J. V. Ortiz, A. F. Izmaylov, J. L. Sonnenberg, D. Williams-Young, 
 F. Ding, F. Lipparini, F. Egidi, J. Goings, B. Peng, A. Petrone, 
 T. Henderson, D. Ranasinghe, V. G. Zakrzewski, J. Gao, N. Rega, 
 G. Zheng, W. Liang, M. Hada, M. Ehara, K. Toyota, R. Fukuda, 
 J. Hasegawa, M. Ishida, T. Nakajima, Y. Honda, O. Kitao, H. Nakai, 
 T. Vreven, K. Throssell, J. A. Montgomery, Jr., J. E. Peralta, 
 F. Ogliaro, M. J. Bearpark, J. J. Heyd, E. N. Brothers, K. N. Kudin, 
 V. N. Staroverov, T. A. Keith, R. Kobayashi, J. Normand, 
 K. Raghavachari, A. P. Rendell, J. C. Burant, S. S. Iyengar, 
 J. Tomasi, M. Cossi, J. M. Millam, M. Klene, C. Adamo, R. Cammi, 
 J. W. Ochterski, R. L. Martin, K. Morokuma, O. Farkas, 
 J. B. Foresman, and D. J. Fox, Gaussian, Inc., Wallingford CT, 2019.
 
 ******************************************
 Gaussian 16:  ES64L-G16RevC.01  3-Jul-2019
                20-Feb-2023 
 ******************************************
 %nprocshared=46
 Will use up to   46 processors via shared memory.
 %chk=Mo19S43_H2S_f.chk
 %mem=100GB
 ---------------------------------------------------------
 # opt freq b3lyp/gen nosymm pseudo=read scf=maxcycles=500
 ---------------------------------------------------------
 1/18=20,19=15,26=3,38=1/1,3;
 2/9=110,12=2,15=1,17=6,18=5,40=1/2;
 3/5=7,11=2,16=1,17=8,25=1,30=1,71=1,74=-5/1,2,3;
 4//1;
 5/5=2,7=500,38=5/2;
 6/7=2,8=2,9=2,10=2,28=1/1;
 7/30=1/1,2,3,16;
 1/18=20,19=15,26=3/3(2);
 2/9=110,15=1/2;
 99//99;
 2/9=110,15=1/2;
 3/5=7,6=1,11=2,16=1,17=8,25=1,30=1,71=1,74=-5,82=7/1,2,3;
 4/5=5,16=3,69=1/1;
 5/5=2,7=500,38=5/2;
 7/30=1/1,2,3,16;
 1/18=20,19=15,26=3/3(-5);
 2/9=110,15=1/2;
 6/7=2,8=2,9=2,10=2,19=2,28=1/1;
 99/9=1/99;
 -------------------
 Title Card Required
 -------------------
 Symbolic Z-matrix:
 Charge =  0 Multiplicity = 1
 42                    0.27601   1.32638   12.59143 
 16                    2.27366   2.29044   13.63149 
 16                   -0.8229    2.06576   14.7873 
 16                   -0.49246   1.00341   10.3139 
 16                    1.90963  -0.3611    11.98428 
 42                   -2.07727   2.6969    10.99265 
 16                   -2.88885   2.49229   8.70345 
 16                   -0.1151    3.63936   12.04498 
 42                    0.93744   2.94726   9.942 
 16                    0.12273   2.68279   7.64429 
 16                    2.57165   1.23101   9.30075 
 42                    3.34258   1.54066   11.57769 
 42                   -1.44843   4.41902   8.3458 
 16                    5.46793   2.41164   12.72094 
 16                    2.97143   3.85064   10.98383 
 16                   -2.40585   5.04615   10.49576 
 16                    1.30938   6.94023   6.46225 
 42                   -4.47612   4.2882    9.52137 
 16                   -5.94895   2.20326   9.64696 
 16                   -5.5247    4.74093   11.42169 
 42                    2.54811  -0.00981   14.32133 
 16                    4.6214    0.42559   15.4074 
 16                    1.57979   0.74217   16.31244 
 42                    1.57852   4.58364   7.28553 
 16                    0.67696   4.37148   4.91379 
 16                    0.56813   5.29655   9.36601 
 42                    4.00684   3.14698   8.89603 
 16                    3.20921   2.86295   6.62666 
 16                    3.56795   5.48099   8.37839 
 42                    4.56536   4.806     6.34015 
 16                    6.73982   4.11811   5.91605 
 16                    4.33031   6.99859   5.6405 
 42                    2.45736   5.94668   4.4273 
 16                    3.90672   4.32603   3.93624 
 16                   -1.45259   7.31547   4.06674 
 42                   -0.86695   6.11439   5.70333 
 16                   -2.37189   4.32683   6.02033 
 16                   -1.77079   6.85584   7.75863 
 42                   -3.66326   6.06073   6.658 
 16                   -5.7078    4.81448   7.41552 
 16                   -4.42967   7.27852   5.11477 
 42                   -5.25452   2.28056   11.75641 
 16                   -3.35214   3.24416   13.08879 
 16                   -3.51647   0.64311   11.45325 
 42                   -2.65023   0.94869   13.76056 
 16                   -1.14223  -0.74471   13.0362 
 16                   -4.144     0.27317   15.0912 
 42                   -0.37797  -0.2734    15.28754 
 16                    1.31145  -1.96726   14.68776 
 16                   -1.3657   -1.13202   16.94942 
 42                    5.61002   0.13251   13.38056 
 16                    5.01598  -0.21654   11.02221 
 16                    8.34418   1.15744   10.9764 
 42                    6.3777    1.76725   10.49672 
 16                    5.75454   1.28387   8.18845 
 16                    6.13894   4.13365   9.96789 
 42                    7.05738   3.20613   8.01648 
 16                    9.12647   2.83123   8.18737 
 16                    2.08653   6.99434   2.62863 
 16                    7.58102  -0.43461   13.9486 
 16                   -6.88148   1.60453   12.92891 
 16                   -5.18093   6.5049    8.57271 
 16                    4.81301  -2.49258   13.36101 
 1                     4.1149   -2.69397   14.50394 
 1                     3.70445  -2.47413   12.58977 
 

 GradGradGradGradGradGradGradGradGradGradGradGradGradGradGradGradGradGrad
 Berny optimization.
 Initialization pass.
                           ----------------------------
                           !    Initial Parameters    !
                           ! (Angstroms and Degrees)  !
 --------------------------                            --------------------------
 ! Name  Definition              Value          Derivative Info.                !
 --------------------------------------------------------------------------------
 ! R1    R(1,2)                  2.4498         estimate D2E/DX2                !
 ! R2    R(1,3)                  2.5644         estimate D2E/DX2                !
 ! R3    R(1,4)                  2.4253         estimate D2E/DX2                !
 ! R4    R(1,5)                  2.4259         estimate D2E/DX2                !
 ! R5    R(1,8)                  2.4086         estimate D2E/DX2                !
 ! R6    R(1,46)                 2.5492         estimate D2E/DX2                !
 ! R7    R(2,12)                 2.4337         estimate D2E/DX2                !
 ! R8    R(2,21)                 2.4171         estimate D2E/DX2                !
 ! R9    R(3,45)                 2.3751         estimate D2E/DX2                !
 ! R10   R(3,48)                 2.4331         estimate D2E/DX2                !
 ! R11   R(4,6)                  2.4167         estimate D2E/DX2                !
 ! R12   R(4,9)                  2.4416         estimate D2E/DX2                !
 ! R13   R(5,12)                 2.4156         estimate D2E/DX2                !
 ! R14   R(5,21)                 2.448          estimate D2E/DX2                !
 ! R15   R(6,7)                  2.4374         estimate D2E/DX2                !
 ! R16   R(6,8)                  2.4178         estimate D2E/DX2                !
 ! R17   R(6,16)                 2.4236         estimate D2E/DX2                !
 ! R18   R(6,43)                 2.5137         estimate D2E/DX2                !
 ! R19   R(6,44)                 2.5498         estimate D2E/DX2                !
 ! R20   R(7,13)                 2.4321         estimate D2E/DX2                !
 ! R21   R(7,18)                 2.5325         estimate D2E/DX2                !
 ! R22   R(8,9)                  2.4514         estimate D2E/DX2                !
 ! R23   R(9,10)                 2.4522         estimate D2E/DX2                !
 ! R24   R(9,11)                 2.4551         estimate D2E/DX2                !
 ! R25   R(9,15)                 2.4574         estimate D2E/DX2                !
 ! R26   R(9,26)                 2.4469         estimate D2E/DX2                !
 ! R27   R(10,13)                2.4444         estimate D2E/DX2                !
 ! R28   R(10,24)                2.421          estimate D2E/DX2                !
 ! R29   R(11,12)                2.4238         estimate D2E/DX2                !
 ! R30   R(11,27)                2.4279         estimate D2E/DX2                !
 ! R31   R(12,14)                2.5657         estimate D2E/DX2                !
 ! R32   R(12,15)                2.4138         estimate D2E/DX2                !
 ! R33   R(12,52)                2.4893         estimate D2E/DX2                !
 ! R34   R(13,16)                2.4356         estimate D2E/DX2                !
 ! R35   R(13,26)                2.4243         estimate D2E/DX2                !
 ! R36   R(13,37)                2.5038         estimate D2E/DX2                !
 ! R37   R(13,38)                2.5272         estimate D2E/DX2                !
 ! R38   R(14,51)                2.3769         estimate D2E/DX2                !
 ! R39   R(14,54)                2.488          estimate D2E/DX2                !
 ! R40   R(15,27)                2.4344         estimate D2E/DX2                !
 ! R41   R(16,18)                2.4104         estimate D2E/DX2                !
 ! R42   R(17,24)                2.5107         estimate D2E/DX2                !
 ! R43   R(17,33)                2.5389         estimate D2E/DX2                !
 ! R44   R(17,36)                2.4483         estimate D2E/DX2                !
 ! R45   R(18,19)                2.5558         estimate D2E/DX2                !
 ! R46   R(18,20)                2.2171         estimate D2E/DX2                !
 ! R47   R(18,40)                2.4957         estimate D2E/DX2                !
 ! R48   R(18,42)                3.1035         estimate D2E/DX2                !
 ! R49   R(18,62)                2.5121         estimate D2E/DX2                !
 ! R50   R(19,42)                2.2222         estimate D2E/DX2                !
 ! R51   R(20,42)                2.4977         estimate D2E/DX2                !
 ! R52   R(21,22)                2.3807         estimate D2E/DX2                !
 ! R53   R(21,23)                2.3383         estimate D2E/DX2                !
 ! R54   R(21,48)                3.0927         estimate D2E/DX2                !
 ! R55   R(21,49)                2.3442         estimate D2E/DX2                !
 ! R56   R(22,51)                2.2741         estimate D2E/DX2                !
 ! R57   R(23,48)                2.432          estimate D2E/DX2                !
 ! R58   R(24,25)                2.5462         estimate D2E/DX2                !
 ! R59   R(24,26)                2.4202         estimate D2E/DX2                !
 ! R60   R(24,28)                2.4605         estimate D2E/DX2                !
 ! R61   R(24,29)                2.4408         estimate D2E/DX2                !
 ! R62   R(25,33)                2.4265         estimate D2E/DX2                !
 ! R63   R(25,36)                2.4586         estimate D2E/DX2                !
 ! R64   R(27,28)                2.4222         estimate D2E/DX2                !
 ! R65   R(27,29)                2.4307         estimate D2E/DX2                !
 ! R66   R(27,30)                3.0979         estimate D2E/DX2                !
 ! R67   R(27,55)                2.6507         estimate D2E/DX2                !
 ! R68   R(27,56)                2.5823         estimate D2E/DX2                !
 ! R69   R(28,30)                2.3868         estimate D2E/DX2                !
 ! R70   R(29,30)                2.3675         estimate D2E/DX2                !
 ! R71   R(30,31)                2.3198         estimate D2E/DX2                !
 ! R72   R(30,32)                2.3135         estimate D2E/DX2                !
 ! R73   R(30,33)                3.0666         estimate D2E/DX2                !
 ! R74   R(30,34)                2.5383         estimate D2E/DX2                !
 ! R75   R(31,57)                2.3118         estimate D2E/DX2                !
 ! R76   R(32,33)                2.467          estimate D2E/DX2                !
 ! R77   R(33,34)                2.229          estimate D2E/DX2                !
 ! R78   R(33,59)                2.1143         estimate D2E/DX2                !
 ! R79   R(35,36)                2.1128         estimate D2E/DX2                !
 ! R80   R(36,37)                2.3581         estimate D2E/DX2                !
 ! R81   R(36,38)                2.3645         estimate D2E/DX2                !
 ! R82   R(36,39)                2.9553         estimate D2E/DX2                !
 ! R83   R(37,39)                2.254          estimate D2E/DX2                !
 ! R84   R(38,39)                2.3292         estimate D2E/DX2                !
 ! R85   R(39,40)                2.5114         estimate D2E/DX2                !
 ! R86   R(39,41)                2.11           estimate D2E/DX2                !
 ! R87   R(39,62)                2.4833         estimate D2E/DX2                !
 ! R88   R(40,62)                2.1152         estimate D2E/DX2                !
 ! R89   R(42,43)                2.5145         estimate D2E/DX2                !
 ! R90   R(42,44)                2.4071         estimate D2E/DX2                !
 ! R91   R(42,61)                2.1163         estimate D2E/DX2                !
 ! R92   R(43,45)                2.4926         estimate D2E/DX2                !
 ! R93   R(44,45)                2.4834         estimate D2E/DX2                !
 ! R94   R(45,46)                2.3804         estimate D2E/DX2                !
 ! R95   R(45,47)                2.1115         estimate D2E/DX2                !
 ! R96   R(45,48)                2.9981         estimate D2E/DX2                !
 ! R97   R(46,48)                2.4238         estimate D2E/DX2                !
 ! R98   R(48,49)                2.4664         estimate D2E/DX2                !
 ! R99   R(48,50)                2.1153         estimate D2E/DX2                !
 ! R100  R(51,52)                2.4569         estimate D2E/DX2                !
 ! R101  R(51,60)                2.1282         estimate D2E/DX2                !
 ! R102  R(51,63)                2.7435         estimate D2E/DX2                !
 ! R103  R(52,54)                2.4629         estimate D2E/DX2                !
 ! R104  R(53,54)                2.114          estimate D2E/DX2                !
 ! R105  R(54,55)                2.4393         estimate D2E/DX2                !
 ! R106  R(54,56)                2.4365         estimate D2E/DX2                !
 ! R107  R(54,57)                2.9468         estimate D2E/DX2                !
 ! R108  R(55,57)                2.3285         estimate D2E/DX2                !
 ! R109  R(56,57)                2.3477         estimate D2E/DX2                !
 ! R110  R(57,58)                2.1097         estimate D2E/DX2                !
 ! R111  R(63,64)                1.3543         estimate D2E/DX2                !
 ! R112  R(63,65)                1.3506         estimate D2E/DX2                !
 ! A1    A(2,1,3)               82.6712         estimate D2E/DX2                !
 ! A2    A(2,1,4)              135.1905         estimate D2E/DX2                !
 ! A3    A(2,1,5)               80.2633         estimate D2E/DX2                !
 ! A4    A(2,1,8)               81.4214         estimate D2E/DX2                !
 ! A5    A(2,1,46)             134.3696         estimate D2E/DX2                !
 ! A6    A(3,1,4)              134.9702         estimate D2E/DX2                !
 ! A7    A(3,1,5)              134.7043         estimate D2E/DX2                !
 ! A8    A(3,1,8)               81.2462         estimate D2E/DX2                !
 ! A9    A(3,1,46)              81.1668         estimate D2E/DX2                !
 ! A10   A(4,1,5)               83.4372         estimate D2E/DX2                !
 ! A11   A(4,1,8)               82.1475         estimate D2E/DX2                !
 ! A12   A(4,1,46)              83.0716         estimate D2E/DX2                !
 ! A13   A(5,1,8)              136.1007         estimate D2E/DX2                !
 ! A14   A(5,1,46)              81.5566         estimate D2E/DX2                !
 ! A15   A(8,1,46)             136.8377         estimate D2E/DX2                !
 ! A16   A(1,2,12)              83.0293         estimate D2E/DX2                !
 ! A17   A(1,2,21)              80.7501         estimate D2E/DX2                !
 ! A18   A(12,2,21)             84.1336         estimate D2E/DX2                !
 ! A19   A(1,3,45)              79.8585         estimate D2E/DX2                !
 ! A20   A(1,3,48)              79.6591         estimate D2E/DX2                !
 ! A21   A(1,4,6)               81.4148         estimate D2E/DX2                !
 ! A22   A(1,4,9)               81.4574         estimate D2E/DX2                !
 ! A23   A(6,4,9)               82.4689         estimate D2E/DX2                !
 ! A24   A(1,5,12)              83.9127         estimate D2E/DX2                !
 ! A25   A(1,5,21)              80.6121         estimate D2E/DX2                !
 ! A26   A(12,5,21)             83.8576         estimate D2E/DX2                !
 ! A27   A(4,6,7)               84.0157         estimate D2E/DX2                !
 ! A28   A(4,6,8)               82.1369         estimate D2E/DX2                !
 ! A29   A(4,6,16)             135.2825         estimate D2E/DX2                !
 ! A30   A(4,6,43)             136.0025         estimate D2E/DX2                !
 ! A31   A(4,6,44)              81.7464         estimate D2E/DX2                !
 ! A32   A(7,6,8)              135.3752         estimate D2E/DX2                !
 ! A33   A(7,6,16)              81.0064         estimate D2E/DX2                !
 ! A34   A(7,6,43)             129.2414         estimate D2E/DX2                !
 ! A35   A(7,6,44)              85.0723         estimate D2E/DX2                !
 ! A36   A(8,6,16)              79.7128         estimate D2E/DX2                !
 ! A37   A(8,6,43)              87.9248         estimate D2E/DX2                !
 ! A38   A(8,6,44)             133.9013         estimate D2E/DX2                !
 ! A39   A(16,6,43)             83.7522         estimate D2E/DX2                !
 ! A40   A(16,6,44)            137.8399         estimate D2E/DX2                !
 ! A41   A(43,6,44)             74.8384         estimate D2E/DX2                !
 ! A42   A(6,7,13)              82.7847         estimate D2E/DX2                !
 ! A43   A(6,7,18)              81.1314         estimate D2E/DX2                !
 ! A44   A(13,7,18)             81.7728         estimate D2E/DX2                !
 ! A45   A(1,8,6)               81.7324         estimate D2E/DX2                !
 ! A46   A(1,8,9)               81.5928         estimate D2E/DX2                !
 ! A47   A(6,8,9)               82.2425         estimate D2E/DX2                !
 ! A48   A(4,9,8)               80.9468         estimate D2E/DX2                !
 ! A49   A(4,9,10)              82.0844         estimate D2E/DX2                !
 ! A50   A(4,9,11)              82.7071         estimate D2E/DX2                !
 ! A51   A(4,9,15)             135.4661         estimate D2E/DX2                !
 ! A52   A(4,9,26)             135.3847         estimate D2E/DX2                !
 ! A53   A(8,9,10)             133.7589         estimate D2E/DX2                !
 ! A54   A(8,9,11)             135.0106         estimate D2E/DX2                !
 ! A55   A(8,9,15)              83.5634         estimate D2E/DX2                !
 ! A56   A(8,9,26)              82.3032         estimate D2E/DX2                !
 ! A57   A(10,9,11)             84.3196         estimate D2E/DX2                !
 ! A58   A(10,9,15)            135.3903         estimate D2E/DX2                !
 ! A59   A(10,9,26)             80.377          estimate D2E/DX2                !
 ! A60   A(11,9,15)             79.4417         estimate D2E/DX2                !
 ! A61   A(11,9,26)            135.2483         estimate D2E/DX2                !
 ! A62   A(15,9,26)             82.6328         estimate D2E/DX2                !
 ! A63   A(9,10,13)             82.4168         estimate D2E/DX2                !
 ! A64   A(9,10,24)             81.6273         estimate D2E/DX2                !
 ! A65   A(13,10,24)            82.6082         estimate D2E/DX2                !
 ! A66   A(9,11,12)             82.9372         estimate D2E/DX2                !
 ! A67   A(9,11,27)             83.4166         estimate D2E/DX2                !
 ! A68   A(12,11,27)            82.4008         estimate D2E/DX2                !
 ! A69   A(2,12,5)              80.7908         estimate D2E/DX2                !
 ! A70   A(2,12,11)            133.8232         estimate D2E/DX2                !
 ! A71   A(2,12,14)             83.2934         estimate D2E/DX2                !
 ! A72   A(2,12,15)             81.0979         estimate D2E/DX2                !
 ! A73   A(2,12,52)            134.5116         estimate D2E/DX2                !
 ! A74   A(5,12,11)             82.4647         estimate D2E/DX2                !
 ! A75   A(5,12,14)            133.1291         estimate D2E/DX2                !
 ! A76   A(5,12,15)            134.717          estimate D2E/DX2                !
 ! A77   A(5,12,52)             83.1424         estimate D2E/DX2                !
 ! A78   A(11,12,14)           136.5063         estimate D2E/DX2                !
 ! A79   A(11,12,15)            80.9226         estimate D2E/DX2                !
 ! A80   A(11,12,52)            85.0669         estimate D2E/DX2                !
 ! A81   A(14,12,15)            84.9588         estimate D2E/DX2                !
 ! A82   A(14,12,52)            77.4201         estimate D2E/DX2                !
 ! A83   A(15,12,52)           136.386          estimate D2E/DX2                !
 ! A84   A(7,13,10)             81.9625         estimate D2E/DX2                !
 ! A85   A(7,13,16)             80.8723         estimate D2E/DX2                !
 ! A86   A(7,13,26)            135.8495         estimate D2E/DX2                !
 ! A87   A(7,13,37)             83.6253         estimate D2E/DX2                !
 ! A88   A(7,13,38)            136.2613         estimate D2E/DX2                !
 ! A89   A(10,13,16)           133.5411         estimate D2E/DX2                !
 ! A90   A(10,13,26)            80.9805         estimate D2E/DX2                !
 ! A91   A(10,13,37)            86.8105         estimate D2E/DX2                !
 ! A92   A(10,13,38)           134.4423         estimate D2E/DX2                !
 ! A93   A(16,13,26)            82.0857         estimate D2E/DX2                !
 ! A94   A(16,13,37)           133.1836         estimate D2E/DX2                !
 ! A95   A(16,13,38)            84.6451         estimate D2E/DX2                !
 ! A96   A(26,13,37)           135.3131         estimate D2E/DX2                !
 ! A97   A(26,13,38)            81.6544         estimate D2E/DX2                !
 ! A98   A(37,13,38)            76.8599         estimate D2E/DX2                !
 ! A99   A(12,14,51)            81.238          estimate D2E/DX2                !
 ! A100  A(12,14,54)            79.4339         estimate D2E/DX2                !
 ! A101  A(51,14,54)            88.733          estimate D2E/DX2                !
 ! A102  A(9,15,12)             83.0945         estimate D2E/DX2                !
 ! A103  A(9,15,27)             83.2338         estimate D2E/DX2                !
 ! A104  A(12,15,27)            82.4717         estimate D2E/DX2                !
 ! A105  A(6,16,13)             82.9981         estimate D2E/DX2                !
 ! A106  A(6,16,18)             83.9451         estimate D2E/DX2                !
 ! A107  A(13,16,18)            84.2508         estimate D2E/DX2                !
 ! A108  A(24,17,33)            81.2014         estimate D2E/DX2                !
 ! A109  A(24,17,36)            83.127          estimate D2E/DX2                !
 ! A110  A(33,17,36)            91.2305         estimate D2E/DX2                !
 ! A111  A(7,18,16)             79.3524         estimate D2E/DX2                !
 ! A112  A(7,18,19)             78.3785         estimate D2E/DX2                !
 ! A113  A(7,18,20)            135.8925         estimate D2E/DX2                !
 ! A114  A(7,18,40)            100.7391         estimate D2E/DX2                !
 ! A115  A(7,18,42)             86.0463         estimate D2E/DX2                !
 ! A116  A(7,18,62)            132.8156         estimate D2E/DX2                !
 ! A117  A(16,18,19)           137.0222         estimate D2E/DX2                !
 ! A118  A(16,18,20)            89.7431         estimate D2E/DX2                !
 ! A119  A(16,18,40)           134.3204         estimate D2E/DX2                !
 ! A120  A(16,18,42)            97.3374         estimate D2E/DX2                !
 ! A121  A(16,18,62)            96.6706         estimate D2E/DX2                !
 ! A122  A(19,18,20)            81.484          estimate D2E/DX2                !
 ! A123  A(19,18,40)            85.9336         estimate D2E/DX2                !
 ! A124  A(19,18,62)           125.2211         estimate D2E/DX2                !
 ! A125  A(20,18,40)           116.5353         estimate D2E/DX2                !
 ! A126  A(20,18,62)            90.6187         estimate D2E/DX2                !
 ! A127  A(40,18,42)           128.3374         estimate D2E/DX2                !
 ! A128  A(42,18,62)           140.5717         estimate D2E/DX2                !
 ! A129  A(2,21,5)              80.4727         estimate D2E/DX2                !
 ! A130  A(2,21,22)             93.1549         estimate D2E/DX2                !
 ! A131  A(2,21,23)             83.6822         estimate D2E/DX2                !
 ! A132  A(2,21,48)             93.6031         estimate D2E/DX2                !
 ! A133  A(2,21,49)            141.2028         estimate D2E/DX2                !
 ! A134  A(5,21,22)            133.5429         estimate D2E/DX2                !
 ! A135  A(5,21,23)            138.6821         estimate D2E/DX2                !
 ! A136  A(5,21,48)             92.2499         estimate D2E/DX2                !
 ! A137  A(5,21,49)             83.789          estimate D2E/DX2                !
 ! A138  A(22,21,23)            85.0301         estimate D2E/DX2                !
 ! A139  A(22,21,48)           134.1885         estimate D2E/DX2                !
 ! A140  A(22,21,49)           122.7407         estimate D2E/DX2                !
 ! A141  A(23,21,49)            85.2375         estimate D2E/DX2                !
 ! A142  A(21,22,51)            87.0441         estimate D2E/DX2                !
 ! A143  A(10,24,17)           136.1435         estimate D2E/DX2                !
 ! A144  A(10,24,25)            81.9342         estimate D2E/DX2                !
 ! A145  A(10,24,26)            81.5384         estimate D2E/DX2                !
 ! A146  A(10,24,28)            83.6345         estimate D2E/DX2                !
 ! A147  A(10,24,29)           135.4331         estimate D2E/DX2                !
 ! A148  A(17,24,25)            74.6219         estimate D2E/DX2                !
 ! A149  A(17,24,26)            87.7446         estimate D2E/DX2                !
 ! A150  A(17,24,28)           129.7644         estimate D2E/DX2                !
 ! A151  A(17,24,29)            83.6338         estimate D2E/DX2                !
 ! A152  A(25,24,26)           132.6448         estimate D2E/DX2                !
 ! A153  A(25,24,28)            85.8114         estimate D2E/DX2                !
 ! A154  A(25,24,29)           137.4189         estimate D2E/DX2                !
 ! A155  A(26,24,28)           135.4687         estimate D2E/DX2                !
 ! A156  A(26,24,29)            81.2044         estimate D2E/DX2                !
 ! A157  A(28,24,29)            80.608          estimate D2E/DX2                !
 ! A158  A(24,25,33)            82.6952         estimate D2E/DX2                !
 ! A159  A(24,25,36)            82.1921         estimate D2E/DX2                !
 ! A160  A(33,25,36)            93.7236         estimate D2E/DX2                !
 ! A161  A(9,26,13)             82.9392         estimate D2E/DX2                !
 ! A162  A(9,26,24)             81.7513         estimate D2E/DX2                !
 ! A163  A(13,26,24)            83.0439         estimate D2E/DX2                !
 ! A164  A(11,27,15)            80.428          estimate D2E/DX2                !
 ! A165  A(11,27,28)            82.4715         estimate D2E/DX2                !
 ! A166  A(11,27,29)           133.3568         estimate D2E/DX2                !
 ! A167  A(11,27,30)           131.8154         estimate D2E/DX2                !
 ! A168  A(11,27,55)            83.0832         estimate D2E/DX2                !
 ! A169  A(11,27,56)           136.0885         estimate D2E/DX2                !
 ! A170  A(15,27,28)           134.2162         estimate D2E/DX2                !
 ! A171  A(15,27,29)            80.1126         estimate D2E/DX2                !
 ! A172  A(15,27,30)           129.0114         estimate D2E/DX2                !
 ! A173  A(15,27,55)           135.4415         estimate D2E/DX2                !
 ! A174  A(15,27,56)            83.3818         estimate D2E/DX2                !
 ! A175  A(28,27,29)            81.5825         estimate D2E/DX2                !
 ! A176  A(28,27,55)            83.3733         estimate D2E/DX2                !
 ! A177  A(28,27,56)           134.8774         estimate D2E/DX2                !
 ! A178  A(29,27,55)           137.4869         estimate D2E/DX2                !
 ! A179  A(29,27,56)            82.5642         estimate D2E/DX2                !
 ! A180  A(30,27,55)            92.138          estimate D2E/DX2                !
 ! A181  A(30,27,56)            89.3685         estimate D2E/DX2                !
 ! A182  A(55,27,56)            80.5014         estimate D2E/DX2                !
 ! A183  A(24,28,27)            83.4165         estimate D2E/DX2                !
 ! A184  A(24,28,30)            80.758          estimate D2E/DX2                !
 ! A185  A(24,29,27)            83.6558         estimate D2E/DX2                !
 ! A186  A(24,29,30)            81.5518         estimate D2E/DX2                !
 ! A187  A(27,30,31)            99.2666         estimate D2E/DX2                !
 ! A188  A(27,30,32)           137.6247         estimate D2E/DX2                !
 ! A189  A(27,30,33)           126.1507         estimate D2E/DX2                !
 ! A190  A(27,30,34)           129.295          estimate D2E/DX2                !
 ! A191  A(28,30,29)            83.6492         estimate D2E/DX2                !
 ! A192  A(28,30,31)           108.2487         estimate D2E/DX2                !
 ! A193  A(28,30,32)           138.6013         estimate D2E/DX2                !
 ! A194  A(28,30,33)            89.2615         estimate D2E/DX2                !
 ! A195  A(28,30,34)            79.1819         estimate D2E/DX2                !
 ! A196  A(29,30,31)           129.5575         estimate D2E/DX2                !
 ! A197  A(29,30,32)            86.9821         estimate D2E/DX2                !
 ! A198  A(29,30,33)            98.1273         estimate D2E/DX2                !
 ! A199  A(29,30,34)           139.4599         estimate D2E/DX2                !
 ! A200  A(31,30,32)           108.7223         estimate D2E/DX2                !
 ! A201  A(31,30,33)           129.838          estimate D2E/DX2                !
 ! A202  A(31,30,34)            90.803          estimate D2E/DX2                !
 ! A203  A(32,30,34)            82.3243         estimate D2E/DX2                !
 ! A204  A(30,31,57)            94.5674         estimate D2E/DX2                !
 ! A205  A(17,33,25)            76.2069         estimate D2E/DX2                !
 ! A206  A(17,33,30)            87.5025         estimate D2E/DX2                !
 ! A207  A(17,33,32)            77.4239         estimate D2E/DX2                !
 ! A208  A(17,33,34)           139.0362         estimate D2E/DX2                !
 ! A209  A(17,33,59)           114.1193         estimate D2E/DX2                !
 ! A210  A(25,33,30)            97.9235         estimate D2E/DX2                !
 ! A211  A(25,33,32)           137.3288         estimate D2E/DX2                !
 ! A212  A(25,33,34)            92.8243         estimate D2E/DX2                !
 ! A213  A(25,33,59)           111.3178         estimate D2E/DX2                !
 ! A214  A(30,33,59)           146.6715         estimate D2E/DX2                !
 ! A215  A(32,33,34)            85.682          estimate D2E/DX2                !
 ! A216  A(32,33,59)           109.8902         estimate D2E/DX2                !
 ! A217  A(34,33,59)           106.6725         estimate D2E/DX2                !
 ! A218  A(17,36,25)            77.3185         estimate D2E/DX2                !
 ! A219  A(17,36,35)           107.1422         estimate D2E/DX2                !
 ! A220  A(17,36,37)           141.3812         estimate D2E/DX2                !
 ! A221  A(17,36,38)            87.9697         estimate D2E/DX2                !
 ! A222  A(17,36,39)           138.3376         estimate D2E/DX2                !
 ! A223  A(25,36,35)           109.1658         estimate D2E/DX2                !
 ! A224  A(25,36,37)            84.6379         estimate D2E/DX2                !
 ! A225  A(25,36,38)           137.8567         estimate D2E/DX2                !
 ! A226  A(25,36,39)           133.2396         estimate D2E/DX2                !
 ! A227  A(35,36,37)           110.9874         estimate D2E/DX2                !
 ! A228  A(35,36,38)           112.8979         estimate D2E/DX2                !
 ! A229  A(35,36,39)            89.9011         estimate D2E/DX2                !
 ! A230  A(37,36,38)            82.9292         estimate D2E/DX2                !
 ! A231  A(13,37,36)            82.0425         estimate D2E/DX2                !
 ! A232  A(13,37,39)            85.4245         estimate D2E/DX2                !
 ! A233  A(13,38,36)            81.4217         estimate D2E/DX2                !
 ! A234  A(13,38,39)            83.3544         estimate D2E/DX2                !
 ! A235  A(36,39,40)           151.2542         estimate D2E/DX2                !
 ! A236  A(36,39,41)            95.5632         estimate D2E/DX2                !
 ! A237  A(36,39,62)           145.4984         estimate D2E/DX2                !
 ! A238  A(37,39,38)            86.0309         estimate D2E/DX2                !
 ! A239  A(37,39,40)            99.7886         estimate D2E/DX2                !
 ! A240  A(37,39,41)           116.4338         estimate D2E/DX2                !
 ! A241  A(37,39,62)           134.8986         estimate D2E/DX2                !
 ! A242  A(38,39,40)           133.4986         estimate D2E/DX2                !
 ! A243  A(38,39,41)           116.3417         estimate D2E/DX2                !
 ! A244  A(38,39,62)            94.0808         estimate D2E/DX2                !
 ! A245  A(40,39,41)           102.1992         estimate D2E/DX2                !
 ! A246  A(41,39,62)           103.8108         estimate D2E/DX2                !
 ! A247  A(18,40,39)            87.5573         estimate D2E/DX2                !
 ! A248  A(18,42,43)            86.7866         estimate D2E/DX2                !
 ! A249  A(18,42,44)            99.6864         estimate D2E/DX2                !
 ! A250  A(18,42,61)           142.9819         estimate D2E/DX2                !
 ! A251  A(19,42,20)            82.7182         estimate D2E/DX2                !
 ! A252  A(19,42,43)           138.8297         estimate D2E/DX2                !
 ! A253  A(19,42,44)            94.7278         estimate D2E/DX2                !
 ! A254  A(19,42,61)           105.9364         estimate D2E/DX2                !
 ! A255  A(20,42,43)            77.0182         estimate D2E/DX2                !
 ! A256  A(20,42,44)           136.9982         estimate D2E/DX2                !
 ! A257  A(20,42,61)           107.8034         estimate D2E/DX2                !
 ! A258  A(43,42,44)            77.3581         estimate D2E/DX2                !
 ! A259  A(43,42,61)           114.2344         estimate D2E/DX2                !
 ! A260  A(44,42,61)           114.0526         estimate D2E/DX2                !
 ! A261  A(6,43,42)             81.8607         estimate D2E/DX2                !
 ! A262  A(6,43,45)             83.1901         estimate D2E/DX2                !
 ! A263  A(42,43,45)            90.1686         estimate D2E/DX2                !
 ! A264  A(6,44,42)             83.2448         estimate D2E/DX2                !
 ! A265  A(6,44,45)             82.6367         estimate D2E/DX2                !
 ! A266  A(42,44,45)            92.9315         estimate D2E/DX2                !
 ! A267  A(3,45,43)             84.2626         estimate D2E/DX2                !
 ! A268  A(3,45,44)            136.7078         estimate D2E/DX2                !
 ! A269  A(3,45,46)             88.7815         estimate D2E/DX2                !
 ! A270  A(3,45,47)            114.9821         estimate D2E/DX2                !
 ! A271  A(43,45,44)            76.3907         estimate D2E/DX2                !
 ! A272  A(43,45,46)           138.7209         estimate D2E/DX2                !
 ! A273  A(43,45,47)           105.3817         estimate D2E/DX2                !
 ! A274  A(43,45,48)           136.5586         estimate D2E/DX2                !
 ! A275  A(44,45,46)            81.4146         estimate D2E/DX2                !
 ! A276  A(44,45,47)           107.4197         estimate D2E/DX2                !
 ! A277  A(44,45,48)           133.4255         estimate D2E/DX2                !
 ! A278  A(46,45,47)           114.3528         estimate D2E/DX2                !
 ! A279  A(47,45,48)            94.8647         estimate D2E/DX2                !
 ! A280  A(1,46,45)             80.0713         estimate D2E/DX2                !
 ! A281  A(1,46,48)             80.1342         estimate D2E/DX2                !
 ! A282  A(3,48,21)             91.5382         estimate D2E/DX2                !
 ! A283  A(3,48,23)             80.3508         estimate D2E/DX2                !
 ! A284  A(3,48,46)             86.4633         estimate D2E/DX2                !
 ! A285  A(3,48,49)            137.3519         estimate D2E/DX2                !
 ! A286  A(3,48,50)            117.799          estimate D2E/DX2                !
 ! A287  A(21,48,45)           121.5479         estimate D2E/DX2                !
 ! A288  A(21,48,46)            91.4161         estimate D2E/DX2                !
 ! A289  A(21,48,50)           136.204          estimate D2E/DX2                !
 ! A290  A(23,48,45)           130.8846         estimate D2E/DX2                !
 ! A291  A(23,48,46)           136.591          estimate D2E/DX2                !
 ! A292  A(23,48,49)            80.669          estimate D2E/DX2                !
 ! A293  A(23,48,50)           102.3744         estimate D2E/DX2                !
 ! A294  A(45,48,49)           132.4732         estimate D2E/DX2                !
 ! A295  A(45,48,50)           102.2221         estimate D2E/DX2                !
 ! A296  A(46,48,49)            81.753          estimate D2E/DX2                !
 ! A297  A(46,48,50)           120.2369         estimate D2E/DX2                !
 ! A298  A(49,48,50)           103.4225         estimate D2E/DX2                !
 ! A299  A(14,51,22)            95.6111         estimate D2E/DX2                !
 ! A300  A(14,51,52)            81.6853         estimate D2E/DX2                !
 ! A301  A(14,51,60)           112.6407         estimate D2E/DX2                !
 ! A302  A(14,51,63)           153.9143         estimate D2E/DX2                !
 ! A303  A(22,51,52)           140.2393         estimate D2E/DX2                !
 ! A304  A(22,51,60)           101.4831         estimate D2E/DX2                !
 ! A305  A(22,51,63)            90.1934         estimate D2E/DX2                !
 ! A306  A(52,51,60)           116.2489         estimate D2E/DX2                !
 ! A307  A(52,51,63)            77.701          estimate D2E/DX2                !
 ! A308  A(60,51,63)            90.9155         estimate D2E/DX2                !
 ! A309  A(12,52,51)            81.2603         estimate D2E/DX2                !
 ! A310  A(12,52,54)            81.4139         estimate D2E/DX2                !
 ! A311  A(51,52,54)            87.518          estimate D2E/DX2                !
 ! A312  A(14,54,52)            79.3798         estimate D2E/DX2                !
 ! A313  A(14,54,53)           102.2399         estimate D2E/DX2                !
 ! A314  A(14,54,55)           143.5022         estimate D2E/DX2                !
 ! A315  A(14,54,56)            84.6439         estimate D2E/DX2                !
 ! A316  A(14,54,57)           135.2595         estimate D2E/DX2                !
 ! A317  A(52,54,53)           103.5063         estimate D2E/DX2                !
 ! A318  A(52,54,55)            84.3208         estimate D2E/DX2                !
 ! A319  A(52,54,56)           140.7533         estimate D2E/DX2                !
 ! A320  A(52,54,57)           134.4589         estimate D2E/DX2                !
 ! A321  A(53,54,55)           113.2783         estimate D2E/DX2                !
 ! A322  A(53,54,56)           114.8702         estimate D2E/DX2                !
 ! A323  A(53,54,57)            96.7348         estimate D2E/DX2                !
 ! A324  A(55,54,56)            87.8245         estimate D2E/DX2                !
 ! A325  A(27,55,54)            77.0885         estimate D2E/DX2                !
 ! A326  A(27,55,57)            78.9525         estimate D2E/DX2                !
 ! A327  A(27,56,54)            78.4575         estimate D2E/DX2                !
 ! A328  A(27,56,57)            80.0401         estimate D2E/DX2                !
 ! A329  A(31,57,54)           157.7662         estimate D2E/DX2                !
 ! A330  A(31,57,55)           108.4156         estimate D2E/DX2                !
 ! A331  A(31,57,56)           123.0664         estimate D2E/DX2                !
 ! A332  A(31,57,58)           106.1655         estimate D2E/DX2                !
 ! A333  A(54,57,58)            94.0866         estimate D2E/DX2                !
 ! A334  A(55,57,56)            92.6291         estimate D2E/DX2                !
 ! A335  A(55,57,58)           113.3319         estimate D2E/DX2                !
 ! A336  A(56,57,58)           112.7402         estimate D2E/DX2                !
 ! A337  A(18,62,39)            87.8151         estimate D2E/DX2                !
 ! A338  A(51,63,64)           106.6198         estimate D2E/DX2                !
 ! A339  A(51,63,65)           103.2648         estimate D2E/DX2                !
 ! A340  A(64,63,65)            93.4882         estimate D2E/DX2                !
 ! D1    D(3,1,2,12)           178.563          estimate D2E/DX2                !
 ! D2    D(3,1,2,21)            93.4055         estimate D2E/DX2                !
 ! D3    D(4,1,2,12)           -29.6002         estimate D2E/DX2                !
 ! D4    D(4,1,2,21)          -114.7577         estimate D2E/DX2                !
 ! D5    D(5,1,2,12)            40.6885         estimate D2E/DX2                !
 ! D6    D(5,1,2,21)           -44.469          estimate D2E/DX2                !
 ! D7    D(8,1,2,12)           -99.2405         estimate D2E/DX2                !
 ! D8    D(8,1,2,21)           175.6019         estimate D2E/DX2                !
 ! D9    D(46,1,2,12)          108.5861         estimate D2E/DX2                !
 ! D10   D(46,1,2,21)           23.4285         estimate D2E/DX2                !
 ! D11   D(2,1,3,45)          -175.6322         estimate D2E/DX2                !
 ! D12   D(2,1,3,48)           -97.0071         estimate D2E/DX2                !
 ! D13   D(4,1,3,45)            32.413          estimate D2E/DX2                !
 ! D14   D(4,1,3,48)           111.0381         estimate D2E/DX2                !
 ! D15   D(5,1,3,45)          -107.1754         estimate D2E/DX2                !
 ! D16   D(5,1,3,48)           -28.5502         estimate D2E/DX2                !
 ! D17   D(8,1,3,45)           101.9739         estimate D2E/DX2                !
 ! D18   D(8,1,3,48)          -179.4009         estimate D2E/DX2                !
 ! D19   D(46,1,3,45)          -38.4522         estimate D2E/DX2                !
 ! D20   D(46,1,3,48)           40.173          estimate D2E/DX2                !
 ! D21   D(2,1,4,6)           -110.6411         estimate D2E/DX2                !
 ! D22   D(2,1,4,9)            -27.0347         estimate D2E/DX2                !
 ! D23   D(3,1,4,6)             27.9301         estimate D2E/DX2                !
 ! D24   D(3,1,4,9)            111.5364         estimate D2E/DX2                !
 ! D25   D(5,1,4,6)           -179.7024         estimate D2E/DX2                !
 ! D26   D(5,1,4,9)            -96.0961         estimate D2E/DX2                !
 ! D27   D(8,1,4,6)            -41.2812         estimate D2E/DX2                !
 ! D28   D(8,1,4,9)             42.3252         estimate D2E/DX2                !
 ! D29   D(46,1,4,6)            98.0509         estimate D2E/DX2                !
 ! D30   D(46,1,4,9)          -178.3428         estimate D2E/DX2                !
 ! D31   D(2,1,5,12)           -40.9697         estimate D2E/DX2                !
 ! D32   D(2,1,5,21)            43.7841         estimate D2E/DX2                !
 ! D33   D(3,1,5,12)          -110.3642         estimate D2E/DX2                !
 ! D34   D(3,1,5,21)           -25.6104         estimate D2E/DX2                !
 ! D35   D(4,1,5,12)            97.1303         estimate D2E/DX2                !
 ! D36   D(4,1,5,21)          -178.1159         estimate D2E/DX2                !
 ! D37   D(8,1,5,12)            25.6655         estimate D2E/DX2                !
 ! D38   D(8,1,5,21)           110.4193         estimate D2E/DX2                !
 ! D39   D(46,1,5,12)         -178.9359         estimate D2E/DX2                !
 ! D40   D(46,1,5,21)          -94.1821         estimate D2E/DX2                !
 ! D41   D(2,1,8,6)            179.3821         estimate D2E/DX2                !
 ! D42   D(2,1,8,9)             96.0667         estimate D2E/DX2                !
 ! D43   D(3,1,8,6)            -96.7775         estimate D2E/DX2                !
 ! D44   D(3,1,8,9)            179.9071         estimate D2E/DX2                !
 ! D45   D(4,1,8,6)             41.2164         estimate D2E/DX2                !
 ! D46   D(4,1,8,9)            -42.099          estimate D2E/DX2                !
 ! D47   D(5,1,8,6)            113.1747         estimate D2E/DX2                !
 ! D48   D(5,1,8,9)             29.8593         estimate D2E/DX2                !
 ! D49   D(46,1,8,6)           -29.8139         estimate D2E/DX2                !
 ! D50   D(46,1,8,9)          -113.1293         estimate D2E/DX2                !
 ! D51   D(2,1,46,45)          108.8939         estimate D2E/DX2                !
 ! D52   D(2,1,46,48)           30.2859         estimate D2E/DX2                !
 ! D53   D(3,1,46,45)           38.3212         estimate D2E/DX2                !
 ! D54   D(3,1,46,48)          -40.2868         estimate D2E/DX2                !
 ! D55   D(4,1,46,45)          -99.3563         estimate D2E/DX2                !
 ! D56   D(4,1,46,48)         -177.9643         estimate D2E/DX2                !
 ! D57   D(5,1,46,45)          176.2883         estimate D2E/DX2                !
 ! D58   D(5,1,46,48)           97.6802         estimate D2E/DX2                !
 ! D59   D(8,1,46,45)          -28.6713         estimate D2E/DX2                !
 ! D60   D(8,1,46,48)         -107.2793         estimate D2E/DX2                !
 ! D61   D(1,2,12,5)           -40.8217         estimate D2E/DX2                !
 ! D62   D(1,2,12,11)           29.3175         estimate D2E/DX2                !
 ! D63   D(1,2,12,14)         -176.5804         estimate D2E/DX2                !
 ! D64   D(1,2,12,15)           97.499          estimate D2E/DX2                !
 ! D65   D(1,2,12,52)         -111.6128         estimate D2E/DX2                !
 ! D66   D(21,2,12,5)           40.5382         estimate D2E/DX2                !
 ! D67   D(21,2,12,11)         110.6773         estimate D2E/DX2                !
 ! D68   D(21,2,12,14)         -95.2205         estimate D2E/DX2                !
 ! D69   D(21,2,12,15)         178.8589         estimate D2E/DX2                !
 ! D70   D(21,2,12,52)         -30.2529         estimate D2E/DX2                !
 ! D71   D(1,2,21,5)            43.9281         estimate D2E/DX2                !
 ! D72   D(1,2,21,22)          177.5852         estimate D2E/DX2                !
 ! D73   D(1,2,21,23)          -97.7738         estimate D2E/DX2                !
 ! D74   D(1,2,21,48)          -47.752          estimate D2E/DX2                !
 ! D75   D(1,2,21,49)          -23.4997         estimate D2E/DX2                !
 ! D76   D(12,2,21,5)          -39.9367         estimate D2E/DX2                !
 ! D77   D(12,2,21,22)          93.7204         estimate D2E/DX2                !
 ! D78   D(12,2,21,23)         178.3614         estimate D2E/DX2                !
 ! D79   D(12,2,21,48)        -131.6168         estimate D2E/DX2                !
 ! D80   D(12,2,21,49)        -107.3645         estimate D2E/DX2                !
 ! D81   D(1,3,45,43)          -98.0887         estimate D2E/DX2                !
 ! D82   D(1,3,45,44)          -34.9299         estimate D2E/DX2                !
 ! D83   D(1,3,45,46)           41.164          estimate D2E/DX2                !
 ! D84   D(1,3,45,47)          157.5943         estimate D2E/DX2                !
 ! D85   D(1,3,48,21)           49.1243         estimate D2E/DX2                !
 ! D86   D(1,3,48,23)           96.2872         estimate D2E/DX2                !
 ! D87   D(1,3,48,46)          -42.1999         estimate D2E/DX2                !
 ! D88   D(1,3,48,49)           31.5861         estimate D2E/DX2                !
 ! D89   D(1,3,48,50)         -164.7325         estimate D2E/DX2                !
 ! D90   D(1,4,6,7)            178.5591         estimate D2E/DX2                !
 ! D91   D(1,4,6,8)             41.0918         estimate D2E/DX2                !
 ! D92   D(1,4,6,16)           107.7828         estimate D2E/DX2                !
 ! D93   D(1,4,6,43)           -37.6255         estimate D2E/DX2                !
 ! D94   D(1,4,6,44)           -95.5736         estimate D2E/DX2                !
 ! D95   D(9,4,6,7)             96.1198         estimate D2E/DX2                !
 ! D96   D(9,4,6,8)            -41.3475         estimate D2E/DX2                !
 ! D97   D(9,4,6,16)            25.3434         estimate D2E/DX2                !
 ! D98   D(9,4,6,43)          -120.0648         estimate D2E/DX2                !
 ! D99   D(9,4,6,44)          -178.013          estimate D2E/DX2                !
 ! D100  D(1,4,9,8)            -41.5788         estimate D2E/DX2                !
 ! D101  D(1,4,9,10)          -178.4016         estimate D2E/DX2                !
 ! D102  D(1,4,9,11)            96.3567         estimate D2E/DX2                !
 ! D103  D(1,4,9,15)            29.5276         estimate D2E/DX2                !
 ! D104  D(1,4,9,26)          -110.8107         estimate D2E/DX2                !
 ! D105  D(6,4,9,8)             40.8123         estimate D2E/DX2                !
 ! D106  D(6,4,9,10)           -96.0105         estimate D2E/DX2                !
 ! D107  D(6,4,9,11)           178.7479         estimate D2E/DX2                !
 ! D108  D(6,4,9,15)           111.9187         estimate D2E/DX2                !
 ! D109  D(6,4,9,26)           -28.4196         estimate D2E/DX2                !
 ! D110  D(1,5,12,2)            41.2235         estimate D2E/DX2                !
 ! D111  D(1,5,12,11)          -95.582          estimate D2E/DX2                !
 ! D112  D(1,5,12,14)          112.9242         estimate D2E/DX2                !
 ! D113  D(1,5,12,15)          -26.3716         estimate D2E/DX2                !
 ! D114  D(1,5,12,52)          178.5157         estimate D2E/DX2                !
 ! D115  D(21,5,12,2)          -39.946          estimate D2E/DX2                !
 ! D116  D(21,5,12,11)        -176.7514         estimate D2E/DX2                !
 ! D117  D(21,5,12,14)          31.7547         estimate D2E/DX2                !
 ! D118  D(21,5,12,15)        -107.5411         estimate D2E/DX2                !
 ! D119  D(21,5,12,52)          97.3463         estimate D2E/DX2                !
 ! D120  D(1,5,21,2)           -44.4978         estimate D2E/DX2                !
 ! D121  D(1,5,21,22)         -129.7644         estimate D2E/DX2                !
 ! D122  D(1,5,21,23)           24.4068         estimate D2E/DX2                !
 ! D123  D(1,5,21,48)           48.7801         estimate D2E/DX2                !
 ! D124  D(1,5,21,49)           99.912          estimate D2E/DX2                !
 ! D125  D(12,5,21,2)           40.3207         estimate D2E/DX2                !
 ! D126  D(12,5,21,22)         -44.9459         estimate D2E/DX2                !
 ! D127  D(12,5,21,23)         109.2253         estimate D2E/DX2                !
 ! D128  D(12,5,21,48)         133.5986         estimate D2E/DX2                !
 ! D129  D(12,5,21,49)        -175.2696         estimate D2E/DX2                !
 ! D130  D(4,6,7,13)           -96.5389         estimate D2E/DX2                !
 ! D131  D(4,6,7,18)          -179.287          estimate D2E/DX2                !
 ! D132  D(8,6,7,13)           -24.1184         estimate D2E/DX2                !
 ! D133  D(8,6,7,18)          -106.8665         estimate D2E/DX2                !
 ! D134  D(16,6,7,13)           41.1893         estimate D2E/DX2                !
 ! D135  D(16,6,7,18)          -41.5588         estimate D2E/DX2                !
 ! D136  D(43,6,7,13)          115.4335         estimate D2E/DX2                !
 ! D137  D(43,6,7,18)           32.6854         estimate D2E/DX2                !
 ! D138  D(44,6,7,13)         -178.7318         estimate D2E/DX2                !
 ! D139  D(44,6,7,18)           98.5201         estimate D2E/DX2                !
 ! D140  D(4,6,8,1)            -41.397          estimate D2E/DX2                !
 ! D141  D(4,6,8,9)             41.1732         estimate D2E/DX2                !
 ! D142  D(7,6,8,1)           -114.5541         estimate D2E/DX2                !
 ! D143  D(7,6,8,9)            -31.9839         estimate D2E/DX2                !
 ! D144  D(16,6,8,1)           179.6549         estimate D2E/DX2                !
 ! D145  D(16,6,8,9)           -97.7749         estimate D2E/DX2                !
 ! D146  D(43,6,8,1)            95.6304         estimate D2E/DX2                !
 ! D147  D(43,6,8,9)           178.2005         estimate D2E/DX2                !
 ! D148  D(44,6,8,1)            29.0893         estimate D2E/DX2                !
 ! D149  D(44,6,8,9)           111.6595         estimate D2E/DX2                !
 ! D150  D(4,6,16,13)           30.8562         estimate D2E/DX2                !
 ! D151  D(4,6,16,18)          115.7808         estimate D2E/DX2                !
 ! D152  D(7,6,16,13)          -41.0934         estimate D2E/DX2                !
 ! D153  D(7,6,16,18)           43.8313         estimate D2E/DX2                !
 ! D154  D(8,6,16,13)           98.4661         estimate D2E/DX2                !
 ! D155  D(8,6,16,18)         -176.6093         estimate D2E/DX2                !
 ! D156  D(43,6,16,13)        -172.5167         estimate D2E/DX2                !
 ! D157  D(43,6,16,18)         -87.5921         estimate D2E/DX2                !
 ! D158  D(44,6,16,13)        -113.3736         estimate D2E/DX2                !
 ! D159  D(44,6,16,18)         -28.449          estimate D2E/DX2                !
 ! D160  D(4,6,43,42)         -105.2293         estimate D2E/DX2                !
 ! D161  D(4,6,43,45)          -14.0791         estimate D2E/DX2                !
 ! D162  D(7,6,43,42)           25.4701         estimate D2E/DX2                !
 ! D163  D(7,6,43,45)          116.6203         estimate D2E/DX2                !
 ! D164  D(8,6,43,42)          178.3391         estimate D2E/DX2                !
 ! D165  D(8,6,43,45)          -90.5107         estimate D2E/DX2                !
 ! D166  D(16,6,43,42)          98.4643         estimate D2E/DX2                !
 ! D167  D(16,6,43,45)        -170.3855         estimate D2E/DX2                !
 ! D168  D(44,6,43,42)         -44.8821         estimate D2E/DX2                !
 ! D169  D(44,6,43,45)          46.2681         estimate D2E/DX2                !
 ! D170  D(4,6,44,42)         -170.2953         estimate D2E/DX2                !
 ! D171  D(4,6,44,45)           95.8495         estimate D2E/DX2                !
 ! D172  D(7,6,44,42)          -85.6448         estimate D2E/DX2                !
 ! D173  D(7,6,44,45)         -179.5            estimate D2E/DX2                !
 ! D174  D(8,6,44,42)          119.0617         estimate D2E/DX2                !
 ! D175  D(8,6,44,45)           25.2065         estimate D2E/DX2                !
 ! D176  D(16,6,44,42)         -14.8518         estimate D2E/DX2                !
 ! D177  D(16,6,44,45)        -108.707          estimate D2E/DX2                !
 ! D178  D(43,6,44,42)          47.2924         estimate D2E/DX2                !
 ! D179  D(43,6,44,45)         -46.5628         estimate D2E/DX2                !
 ! D180  D(6,7,13,10)           95.7013         estimate D2E/DX2                !
 ! D181  D(6,7,13,16)          -40.9609         estimate D2E/DX2                !
 ! D182  D(6,7,13,26)           27.5873         estimate D2E/DX2                !
 ! D183  D(6,7,13,37)         -176.635          estimate D2E/DX2                !
 ! D184  D(6,7,13,38)         -113.2256         estimate D2E/DX2                !
 ! D185  D(18,7,13,10)         177.7281         estimate D2E/DX2                !
 ! D186  D(18,7,13,16)          41.0659         estimate D2E/DX2                !
 ! D187  D(18,7,13,26)         109.6141         estimate D2E/DX2                !
 ! D188  D(18,7,13,37)         -94.6082         estimate D2E/DX2                !
 ! D189  D(18,7,13,38)         -31.1988         estimate D2E/DX2                !
 ! D190  D(6,7,18,16)           42.0954         estimate D2E/DX2                !
 ! D191  D(6,7,18,19)         -100.909          estimate D2E/DX2                !
 ! D192  D(6,7,18,20)          -36.3378         estimate D2E/DX2                !
 ! D193  D(6,7,18,40)          175.5616         estimate D2E/DX2                !
 ! D194  D(6,7,18,42)          -56.1408         estimate D2E/DX2                !
 ! D195  D(6,7,18,62)          131.3472         estimate D2E/DX2                !
 ! D196  D(13,7,18,16)         -41.8268         estimate D2E/DX2                !
 ! D197  D(13,7,18,19)         175.1688         estimate D2E/DX2                !
 ! D198  D(13,7,18,20)        -120.26           estimate D2E/DX2                !
 ! D199  D(13,7,18,40)          91.6394         estimate D2E/DX2                !
 ! D200  D(13,7,18,42)        -140.063          estimate D2E/DX2                !
 ! D201  D(13,7,18,62)          47.425          estimate D2E/DX2                !
 ! D202  D(1,8,9,4)             41.9134         estimate D2E/DX2                !
 ! D203  D(1,8,9,10)           111.6916         estimate D2E/DX2                !
 ! D204  D(1,8,9,11)           -28.1357         estimate D2E/DX2                !
 ! D205  D(1,8,9,15)           -96.1927         estimate D2E/DX2                !
 ! D206  D(1,8,9,26)          -179.591          estimate D2E/DX2                !
 ! D207  D(6,8,9,4)            -40.8153         estimate D2E/DX2                !
 ! D208  D(6,8,9,10)            28.9629         estimate D2E/DX2                !
 ! D209  D(6,8,9,11)          -110.8644         estimate D2E/DX2                !
 ! D210  D(6,8,9,15)          -178.9214         estimate D2E/DX2                !
 ! D211  D(6,8,9,26)            97.6803         estimate D2E/DX2                !
 ! D212  D(4,9,10,13)           97.4426         estimate D2E/DX2                !
 ! D213  D(4,9,10,24)         -178.9645         estimate D2E/DX2                !
 ! D214  D(8,9,10,13)           28.1195         estimate D2E/DX2                !
 ! D215  D(8,9,10,24)          111.7124         estimate D2E/DX2                !
 ! D216  D(11,9,10,13)        -179.159          estimate D2E/DX2                !
 ! D217  D(11,9,10,24)         -95.5661         estimate D2E/DX2                !
 ! D218  D(15,9,10,13)        -110.4459         estimate D2E/DX2                !
 ! D219  D(15,9,10,24)         -26.853          estimate D2E/DX2                !
 ! D220  D(26,9,10,13)         -41.3663         estimate D2E/DX2                !
 ! D221  D(26,9,10,24)          42.2266         estimate D2E/DX2                !
 ! D222  D(4,9,11,12)          -97.5468         estimate D2E/DX2                !
 ! D223  D(4,9,11,27)          179.336          estimate D2E/DX2                !
 ! D224  D(8,9,11,12)          -28.1815         estimate D2E/DX2                !
 ! D225  D(8,9,11,27)         -111.2987         estimate D2E/DX2                !
 ! D226  D(10,9,11,12)         179.7374         estimate D2E/DX2                !
 ! D227  D(10,9,11,27)          96.6203         estimate D2E/DX2                !
 ! D228  D(15,9,11,12)          41.4681         estimate D2E/DX2                !
 ! D229  D(15,9,11,27)         -41.6491         estimate D2E/DX2                !
 ! D230  D(26,9,11,12)         109.5499         estimate D2E/DX2                !
 ! D231  D(26,9,11,27)          26.4327         estimate D2E/DX2                !
 ! D232  D(4,9,15,12)           26.4038         estimate D2E/DX2                !
 ! D233  D(4,9,15,27)          109.5965         estimate D2E/DX2                !
 ! D234  D(8,9,15,12)           96.4995         estimate D2E/DX2                !
 ! D235  D(8,9,15,27)          179.6922         estimate D2E/DX2                !
 ! D236  D(10,9,15,12)        -112.2509         estimate D2E/DX2                !
 ! D237  D(10,9,15,27)         -29.0582         estimate D2E/DX2                !
 ! D238  D(11,9,15,12)         -41.6604         estimate D2E/DX2                !
 ! D239  D(11,9,15,27)          41.5323         estimate D2E/DX2                !
 ! D240  D(26,9,15,12)         179.5315         estimate D2E/DX2                !
 ! D241  D(26,9,15,27)         -97.2758         estimate D2E/DX2                !
 ! D242  D(4,9,26,13)          -26.5144         estimate D2E/DX2                !
 ! D243  D(4,9,26,24)         -110.4669         estimate D2E/DX2                !
 ! D244  D(8,9,26,13)          -95.2269         estimate D2E/DX2                !
 ! D245  D(8,9,26,24)         -179.1793         estimate D2E/DX2                !
 ! D246  D(10,9,26,13)          41.7257         estimate D2E/DX2                !
 ! D247  D(10,9,26,24)         -42.2268         estimate D2E/DX2                !
 ! D248  D(11,9,26,13)         113.4481         estimate D2E/DX2                !
 ! D249  D(11,9,26,24)          29.4956         estimate D2E/DX2                !
 ! D250  D(15,9,26,13)        -179.6839         estimate D2E/DX2                !
 ! D251  D(15,9,26,24)          96.3636         estimate D2E/DX2                !
 ! D252  D(9,10,13,7)          -97.374          estimate D2E/DX2                !
 ! D253  D(9,10,13,16)         -28.1803         estimate D2E/DX2                !
 ! D254  D(9,10,13,26)          41.7491         estimate D2E/DX2                !
 ! D255  D(9,10,13,37)         178.6207         estimate D2E/DX2                !
 ! D256  D(9,10,13,38)         110.556          estimate D2E/DX2                !
 ! D257  D(24,10,13,7)        -179.8549         estimate D2E/DX2                !
 ! D258  D(24,10,13,16)       -110.6612         estimate D2E/DX2                !
 ! D259  D(24,10,13,26)        -40.7317         estimate D2E/DX2                !
 ! D260  D(24,10,13,37)         96.1399         estimate D2E/DX2                !
 ! D261  D(24,10,13,38)         28.0751         estimate D2E/DX2                !
 ! D262  D(9,10,24,17)        -120.3771         estimate D2E/DX2                !
 ! D263  D(9,10,24,25)        -178.0972         estimate D2E/DX2                !
 ! D264  D(9,10,24,26)         -42.6314         estimate D2E/DX2                !
 ! D265  D(9,10,24,28)          95.2518         estimate D2E/DX2                !
 ! D266  D(9,10,24,29)          25.5708         estimate D2E/DX2                !
 ! D267  D(13,10,24,17)        -37.0044         estimate D2E/DX2                !
 ! D268  D(13,10,24,25)        -94.7245         estimate D2E/DX2                !
 ! D269  D(13,10,24,26)         40.7413         estimate D2E/DX2                !
 ! D270  D(13,10,24,28)        178.6245         estimate D2E/DX2                !
 ! D271  D(13,10,24,29)        108.9435         estimate D2E/DX2                !
 ! D272  D(9,11,12,2)           26.0956         estimate D2E/DX2                !
 ! D273  D(9,11,12,5)           95.565          estimate D2E/DX2                !
 ! D274  D(9,11,12,14)        -114.8366         estimate D2E/DX2                !
 ! D275  D(9,11,12,15)         -42.1554         estimate D2E/DX2                !
 ! D276  D(9,11,12,52)         179.28           estimate D2E/DX2                !
 ! D277  D(27,11,12,2)         110.3552         estimate D2E/DX2                !
 ! D278  D(27,11,12,5)         179.8246         estimate D2E/DX2                !
 ! D279  D(27,11,12,14)        -30.5769         estimate D2E/DX2                !
 ! D280  D(27,11,12,15)         42.1042         estimate D2E/DX2                !
 ! D281  D(27,11,12,52)        -96.4603         estimate D2E/DX2                !
 ! D282  D(9,11,27,15)          41.9744         estimate D2E/DX2                !
 ! D283  D(9,11,27,28)         -95.3877         estimate D2E/DX2                !
 ! D284  D(9,11,27,29)         -24.5271         estimate D2E/DX2                !
 ! D285  D(9,11,27,30)         -92.9088         estimate D2E/DX2                !
 ! D286  D(9,11,27,55)        -179.578          estimate D2E/DX2                !
 ! D287  D(9,11,27,56)         111.8724         estimate D2E/DX2                !
 ! D288  D(12,11,27,15)        -41.7408         estimate D2E/DX2                !
 ! D289  D(12,11,27,28)       -179.1029         estimate D2E/DX2                !
 ! D290  D(12,11,27,29)       -108.2422         estimate D2E/DX2                !
 ! D291  D(12,11,27,30)       -176.6239         estimate D2E/DX2                !
 ! D292  D(12,11,27,55)         96.7069         estimate D2E/DX2                !
 ! D293  D(12,11,27,56)         28.1572         estimate D2E/DX2                !
 ! D294  D(2,12,14,51)          94.0709         estimate D2E/DX2                !
 ! D295  D(2,12,14,54)        -175.5858         estimate D2E/DX2                !
 ! D296  D(5,12,14,51)          23.3972         estimate D2E/DX2                !
 ! D297  D(5,12,14,54)         113.7405         estimate D2E/DX2                !
 ! D298  D(11,12,14,51)       -113.1768         estimate D2E/DX2                !
 ! D299  D(11,12,14,54)        -22.8335         estimate D2E/DX2                !
 ! D300  D(15,12,14,51)        175.6732         estimate D2E/DX2                !
 ! D301  D(15,12,14,54)        -93.9836         estimate D2E/DX2                !
 ! D302  D(52,12,14,51)        -44.4751         estimate D2E/DX2                !
 ! D303  D(52,12,14,54)         45.8682         estimate D2E/DX2                !
 ! D304  D(2,12,15,9)          -95.2            estimate D2E/DX2                !
 ! D305  D(2,12,15,27)        -179.2475         estimate D2E/DX2                !
 ! D306  D(5,12,15,9)          -27.7233         estimate D2E/DX2                !
 ! D307  D(5,12,15,27)        -111.7707         estimate D2E/DX2                !
 ! D308  D(11,12,15,9)          42.0896         estimate D2E/DX2                !
 ! D309  D(11,12,15,27)        -41.9578         estimate D2E/DX2                !
 ! D310  D(14,12,15,9)        -179.1814         estimate D2E/DX2                !
 ! D311  D(14,12,15,27)         96.7711         estimate D2E/DX2                !
 ! D312  D(52,12,15,9)         114.9959         estimate D2E/DX2                !
 ! D313  D(52,12,15,27)         30.9484         estimate D2E/DX2                !
 ! D314  D(2,12,52,51)         -24.5535         estimate D2E/DX2                !
 ! D315  D(2,12,52,54)        -113.3445         estimate D2E/DX2                !
 ! D316  D(5,12,52,51)         -94.4162         estimate D2E/DX2                !
 ! D317  D(5,12,52,54)         176.7929         estimate D2E/DX2                !
 ! D318  D(11,12,52,51)       -177.3975         estimate D2E/DX2                !
 ! D319  D(11,12,52,54)         93.8116         estimate D2E/DX2                !
 ! D320  D(14,12,52,51)         42.6672         estimate D2E/DX2                !
 ! D321  D(14,12,52,54)        -46.1238         estimate D2E/DX2                !
 ! D322  D(15,12,52,51)        111.2751         estimate D2E/DX2                !
 ! D323  D(15,12,52,54)         22.4842         estimate D2E/DX2                !
 ! D324  D(7,13,16,6)           41.2216         estimate D2E/DX2                !
 ! D325  D(7,13,16,18)         -43.359          estimate D2E/DX2                !
 ! D326  D(10,13,16,6)         -28.4102         estimate D2E/DX2                !
 ! D327  D(10,13,16,18)       -112.9908         estimate D2E/DX2                !
 ! D328  D(26,13,16,6)         -97.8946         estimate D2E/DX2                !
 ! D329  D(26,13,16,18)        177.5248         estimate D2E/DX2                !
 ! D330  D(37,13,16,6)         113.4625         estimate D2E/DX2                !
 ! D331  D(37,13,16,18)         28.8818         estimate D2E/DX2                !
 ! D332  D(38,13,16,6)         179.8149         estimate D2E/DX2                !
 ! D333  D(38,13,16,18)         95.2343         estimate D2E/DX2                !
 ! D334  D(7,13,26,9)           26.6844         estimate D2E/DX2                !
 ! D335  D(7,13,26,24)         109.1844         estimate D2E/DX2                !
 ! D336  D(10,13,26,9)         -41.7996         estimate D2E/DX2                !
 ! D337  D(10,13,26,24)         40.7004         estimate D2E/DX2                !
 ! D338  D(16,13,26,9)          94.7753         estimate D2E/DX2                !
 ! D339  D(16,13,26,24)        177.2753         estimate D2E/DX2                !
 ! D340  D(37,13,26,9)        -117.8784         estimate D2E/DX2                !
 ! D341  D(37,13,26,24)        -35.3784         estimate D2E/DX2                !
 ! D342  D(38,13,26,9)        -179.5166         estimate D2E/DX2                !
 ! D343  D(38,13,26,24)        -97.0166         estimate D2E/DX2                !
 ! D344  D(7,13,37,36)        -177.0133         estimate D2E/DX2                !
 ! D345  D(7,13,37,39)         102.8094         estimate D2E/DX2                !
 ! D346  D(10,13,37,36)        -94.7536         estimate D2E/DX2                !
 ! D347  D(10,13,37,39)       -174.931          estimate D2E/DX2                !
 ! D348  D(16,13,37,36)        111.8774         estimate D2E/DX2                !
 ! D349  D(16,13,37,39)         31.7001         estimate D2E/DX2                !
 ! D350  D(26,13,37,36)        -20.9907         estimate D2E/DX2                !
 ! D351  D(26,13,37,39)       -101.1681         estimate D2E/DX2                !
 ! D352  D(38,13,37,36)         42.3967         estimate D2E/DX2                !
 ! D353  D(38,13,37,39)        -37.7806         estimate D2E/DX2                !
 ! D354  D(7,13,38,36)        -108.2035         estimate D2E/DX2                !
 ! D355  D(7,13,38,39)         -29.3544         estimate D2E/DX2                !
 ! D356  D(10,13,38,36)         29.6655         estimate D2E/DX2                !
 ! D357  D(10,13,38,39)        108.5146         estimate D2E/DX2                !
 ! D358  D(16,13,38,36)       -179.0312         estimate D2E/DX2                !
 ! D359  D(16,13,38,39)       -100.1821         estimate D2E/DX2                !
 ! D360  D(26,13,38,36)         98.2087         estimate D2E/DX2                !
 ! D361  D(26,13,38,39)        177.0578         estimate D2E/DX2                !
 ! D362  D(37,13,38,36)        -42.3373         estimate D2E/DX2                !
 ! D363  D(37,13,38,39)         36.5118         estimate D2E/DX2                !
 ! D364  D(12,14,51,22)        -95.5816         estimate D2E/DX2                !
 ! D365  D(12,14,51,52)         44.4385         estimate D2E/DX2                !
 ! D366  D(12,14,51,60)        159.4837         estimate D2E/DX2                !
 ! D367  D(12,14,51,63)          6.446          estimate D2E/DX2                !
 ! D368  D(54,14,51,22)       -175.0853         estimate D2E/DX2                !
 ! D369  D(54,14,51,52)        -35.0652         estimate D2E/DX2                !
 ! D370  D(54,14,51,60)         79.98           estimate D2E/DX2                !
 ! D371  D(54,14,51,63)        -73.0577         estimate D2E/DX2                !
 ! D372  D(12,14,54,52)        -46.0842         estimate D2E/DX2                !
 ! D373  D(12,14,54,53)       -147.7657         estimate D2E/DX2                !
 ! D374  D(12,14,54,55)         18.9106         estimate D2E/DX2                !
 ! D375  D(12,14,54,56)         97.9104         estimate D2E/DX2                !
 ! D376  D(12,14,54,57)         99.3176         estimate D2E/DX2                !
 ! D377  D(51,14,54,52)         35.2385         estimate D2E/DX2                !
 ! D378  D(51,14,54,53)        -66.4431         estimate D2E/DX2                !
 ! D379  D(51,14,54,55)        100.2333         estimate D2E/DX2                !
 ! D380  D(51,14,54,56)        179.233          estimate D2E/DX2                !
 ! D381  D(51,14,54,57)       -179.3598         estimate D2E/DX2                !
 ! D382  D(9,15,27,11)         -41.9455         estimate D2E/DX2                !
 ! D383  D(9,15,27,28)          27.5996         estimate D2E/DX2                !
 ! D384  D(9,15,27,29)          95.4567         estimate D2E/DX2                !
 ! D385  D(9,15,27,30)          95.2406         estimate D2E/DX2                !
 ! D386  D(9,15,27,55)        -111.7445         estimate D2E/DX2                !
 ! D387  D(9,15,27,56)         179.0247         estimate D2E/DX2                !
 ! D388  D(12,15,27,11)         41.9438         estimate D2E/DX2                !
 ! D389  D(12,15,27,28)        111.489          estimate D2E/DX2                !
 ! D390  D(12,15,27,29)        179.346          estimate D2E/DX2                !
 ! D391  D(12,15,27,30)        179.1299         estimate D2E/DX2                !
 ! D392  D(12,15,27,55)        -27.8551         estimate D2E/DX2                !
 ! D393  D(12,15,27,56)        -97.086          estimate D2E/DX2                !
 ! D394  D(6,16,18,7)          -42.0565         estimate D2E/DX2                !
 ! D395  D(6,16,18,19)          17.7817         estimate D2E/DX2                !
 ! D396  D(6,16,18,20)          94.9528         estimate D2E/DX2                !
 ! D397  D(6,16,18,40)        -136.7264         estimate D2E/DX2                !
 ! D398  D(6,16,18,42)          42.4953         estimate D2E/DX2                !
 ! D399  D(6,16,18,62)        -174.4543         estimate D2E/DX2                !
 ! D400  D(13,16,18,7)          41.4825         estimate D2E/DX2                !
 ! D401  D(13,16,18,19)        101.3207         estimate D2E/DX2                !
 ! D402  D(13,16,18,20)        178.4919         estimate D2E/DX2                !
 ! D403  D(13,16,18,40)        -53.1873         estimate D2E/DX2                !
 ! D404  D(13,16,18,42)        126.0343         estimate D2E/DX2                !
 ! D405  D(13,16,18,62)        -90.9152         estimate D2E/DX2                !
 ! D406  D(33,17,24,10)       -106.4334         estimate D2E/DX2                !
 ! D407  D(33,17,24,25)        -46.1868         estimate D2E/DX2                !
 ! D408  D(33,17,24,26)        178.2532         estimate D2E/DX2                !
 ! D409  D(33,17,24,28)         24.7016         estimate D2E/DX2                !
 ! D410  D(33,17,24,29)         96.8561         estimate D2E/DX2                !
 ! D411  D(36,17,24,10)        -14.1097         estimate D2E/DX2                !
 ! D412  D(36,17,24,25)         46.1369         estimate D2E/DX2                !
 ! D413  D(36,17,24,26)        -89.4231         estimate D2E/DX2                !
 ! D414  D(36,17,24,28)        117.0253         estimate D2E/DX2                !
 ! D415  D(36,17,24,29)       -170.8203         estimate D2E/DX2                !
 ! D416  D(24,17,33,25)         48.7439         estimate D2E/DX2                !
 ! D417  D(24,17,33,30)        -50.0446         estimate D2E/DX2                !
 ! D418  D(24,17,33,32)        -97.4027         estimate D2E/DX2                !
 ! D419  D(24,17,33,34)        -29.4044         estimate D2E/DX2                !
[...]
 43504,0.00057612,0.00052586,-0.00001193,0.00001168,-0.00000392,-0.0000
 0076,-0.00000339,0.00000039,-0.00002368,0.00000474,-0.00001509,0.00015
 461,-0.00007375,0.00001448,-0.00003519,0.00001153,0.00000922,-0.000022
 43,0.00003395,-0.00004027,0.00003473,0.00003563,0.00005556,0.00001783,
 -0.00003429,0.00001654,-0.00000325,-0.00001148,-0.00000525,-0.00000711
 ,0.00001269,-0.00001494,0.00001111,-0.00000817,0.00000658,0.00000008,-
 0.00000741,0.00001055,0.00000153,0.00000995,-0.00001295,0.00000213,-0.
 00000102,-0.00000020,0.00000326,-0.00000429,-0.00000151,-0.00000179,0.
 00000701,-0.00001068,0.00000097,-0.00000132,0.00000117,0.00000601,-0.0
 0000978,0.00001160,-0.00007136,0.00004182,-0.00007016,-0.00002371,-0.0
 0001404,-0.00000910,-0.00001964,0.00006906,0.00007828,0.00016699,-0.00
 026212,0.00003531,0.00000346,0.00047682,0.00009142,-0.00007047,0.00004
 107,0.00001063,-0.00021336,-0.00031150,-0.00076413,0.00211134,0.000440
 38,-0.00026002,0.00002305,0.00012201,0.00006409,-0.00154513,-0.0148546
 2,-0.01086905,-0.00017450,-0.00289725,0.00643762,0.00030591,-0.0000526
 7,0.00035066,-0.00049376,0.00037299,0.00006576,-0.00010219,-0.00015036
 ,0.00014283,-0.00007149,0.00005647,-0.00002879,0.00000828,0.00004561,0
 .00008060,0.00009156,-0.00001787,-0.00001169,0.00000327,-0.00001338,0.
 00002253,-0.00239679,0.00056680,-0.00050587,0.00001805,0.00000310,-0.0
 0000216,0.00000169,-0.00000217,-0.00000006,0.02215522,0.04933516,0.000
 21649,-0.00039909,0.00022295,0.00014663,-0.00020447,0.00000611,-0.0001
 5989,-0.00002878,0.00011429,0.00001830,0.00000149,-0.00000180,-0.00068
 042,0.00105664,0.00013726,-0.00003297,-0.00000813,0.00002091,0.0000050
 4,-0.00000068,0.00000071,0.00003438,0.00005419,-0.00004694,-0.00001239
 ,0.00001341,-0.00003775,-0.00000203,0.00000922,0.00000280,0.00004396,0
 .00000976,0.00009686,-0.00044186,-0.00011857,-0.00089799,-0.00000335,-
 0.00000043,0.00000672,-0.00056096,0.00025492,0.00096964,0.00006562,0.0
 0001407,0.00015090,0.00000344,-0.00000499,-0.00000290,-0.00000366,0.00
 000085,-0.00000624,0.00000173,0.00000375,-0.00001442,0.00000316,-0.000
 00637,0.00001601,-0.00000225,0.00000103,0.00001046,-0.00031832,0.00115
 998,0.00106204,-0.00061406,-0.00581388,-0.00343090,-0.00005658,-0.0001
 2566,-0.00026655,-0.00001067,0.00000203,-0.00000103,-0.00000318,-0.000
 00119,0.00000137,0.00000487,-0.00000553,-0.00000405,0.00006822,0.00008
 270,-0.00003082,-0.00000480,0.00001086,-0.00001081,0.00002214,-0.00000
 334,-0.00000811,0.00000951,-0.00002511,-0.00002215,-0.00002312,0.00002
 690,-0.00005326,-0.00000921,0.00000860,-0.00000477,0.00002095,0.000005
 52,-0.00000150,-0.00000707,0.00000320,-0.00000003,0.00000082,-0.000001
 20,0.00000185,-0.00000095,-0.00000071,0.00000072,0.00000090,0.00000047
 ,0.00000160,-0.00000093,-0.00000285,0.00000133,-0.00000174,0.00000405,
 -0.00000522,-0.00000019,-0.00000142,0.00000299,0.00000103,-0.00000152,
 0.00000198,-0.00003182,0.00001542,-0.00003097,-0.00000684,-0.00002558,
 0.00000499,0.00000231,0.00001575,0.00002455,0.00011603,0.00001721,0.00
 001387,0.00012922,-0.00006613,0.00001968,-0.00001011,0.00000316,-0.000
 00556,-0.00017617,0.00055908,0.00000172,0.00194432,-0.00106499,-0.0009
 8766,-0.00001878,-0.00004538,0.00010863,-0.00166278,-0.00344459,-0.009
 44242,0.00136644,0.00823968,-0.00663224,-0.00033496,0.00003710,-0.0001
 4004,0.00055179,-0.00025126,-0.00147812,-0.00000248,-0.00003481,0.0000
 4136,-0.00016412,0.00001945,0.00000221,0.00009262,0.00003287,0.0001863
 4,-0.00006509,0.00002041,-0.00004701,-0.00000168,0.00000138,-0.0000036
 2,-0.00099914,-0.00205849,0.00087159,0.00000353,0.00000112,-0.00000102
 ,-0.00000056,-0.00000053,0.00000274,0.00593980,-0.03418278,0.29300912,
 0.00022948,0.00009604,-0.00012341,-0.00016553,-0.00036156,-0.00000375,
 -0.00016233,-0.00003934,0.00011971,0.00001597,-0.00002465,-0.00001294,
 -0.00009448,0.00007138,0.00004704,-0.00000390,-0.00000357,0.00001549,0
 .00000717,0.00000710,-0.00000346,-0.00001271,0.00000249,-0.00001056,-0
 .00002902,-0.00006483,0.00006545,0.00001538,0.00000391,-0.00000439,0.0
 0001001,-0.00004020,0.00000391,0.00036044,-0.00000242,0.00004972,-0.00
 001380,-0.00001716,0.00002760,-0.00007763,0.00014083,-0.00050711,0.000
 00854,0.00006601,0.00002197,0.00000277,0.00000336,-0.00001245,-0.00000
 324,0.00000088,-0.00000004,0.00001320,0.00000115,-0.00000829,0.0000052
 4,-0.00001236,0.00004063,0.00000093,0.00000394,0.00001535,0.00132132,0
 .00169376,-0.00000802,-0.00007403,0.00033551,-0.00036883,-0.00002342,-
 0.00023827,-0.00024404,0.00000898,-0.00000652,0.00001050,-0.00000788,0
 .00000032,0.00000106,0.00001508,0.00000304,-0.00000653,-0.00004650,-0.
 00000403,-0.00000247,0.00001079,-0.00000053,-0.00000239,0.00000423,0.0
 0000896,0.00000940,0.00002977,-0.00003188,0.00000264,-0.00004384,0.000
 02613,-0.00001718,-0.00000398,0.00000071,-0.00000142,0.00003202,0.0000
 0087,-0.00002495,-0.00001148,0.00001117,-0.00000281,0.00000348,-0.0000
 0993,0.00001441,-0.00000374,0.00000825,-0.00001187,0.00000216,-0.00000
 350,-0.00000142,0.00000360,0.00000262,0.00000278,-0.00000314,0.0000172
 5,-0.00002545,-0.00000067,-0.00000290,0.00001162,0.00001088,-0.0000151
 9,0.00001797,-0.00009723,0.00002546,-0.00006368,-0.00001527,-0.0000241
 2,0.00001079,0.00000233,-0.00000316,0.00002324,0.00014927,-0.00002030,
 0.00004549,0.00002217,-0.00017863,-0.00001644,0.00001238,0.00002073,-0
 .00003594,-0.00010670,0.00041771,0.00079716,-0.00063721,-0.00166189,-0
 .00033739,0.00002253,0.00007532,-0.00010175,-0.00084118,-0.00111927,0.
 00166090,0.00012772,-0.00004271,-0.00027798,0.00001050,-0.00002122,-0.
 00003703,0.00004219,0.00014570,0.00012926,-0.00002634,-0.00004124,0.00
 000655,0.00000208,0.00001422,-0.00000721,0.00004619,-0.00000982,0.0000
 1522,-0.00003495,0.00000069,0.00000750,-0.00000038,-0.00000896,0.00001
 521,-0.00025817,0.00010266,-0.00025758,0.00002833,0.00000485,-0.000014
 99,-0.00000226,-0.00000694,0.00000654,-0.07907780,-0.02202284,0.108189
 88,0.07050537,-0.00013119,0.00026768,-0.00022471,-0.00027604,0.0000578
 4,0.00016812,0.00002500,0.00002421,-0.00009136,-0.00000668,-0.00002200
 ,0.00002503,-0.00005563,-0.00011048,0.00019373,0.00000703,0.00001575,-
 0.00001947,-0.00001176,-0.00000990,0.00000386,-0.00001251,-0.00000696,
 0.00000973,0.00000146,-0.00000210,0.00001480,-0.00000882,0.00000003,0.
 00000557,-0.00004049,-0.00001217,-0.00003774,0.00020682,-0.00006014,0.
 00056697,0.00001637,0.00001118,-0.00002042,0.00078999,-0.00048435,-0.0
 0041333,-0.00005229,0.00005847,-0.00003290,-0.00000401,0.00000147,0.00
 000920,0.00000491,0.00000040,0.00000307,-0.00000691,-0.00000209,0.0000
 1520,-0.00000609,0.00001251,-0.00003573,0.00000140,-0.00000266,-0.0000
 1920,0.00214957,-0.00258383,-0.00042737,0.00047515,0.00091076,-0.00003
 561,-0.00002914,0.00010848,0.00016687,0.00000105,0.00000706,-0.0000069
 1,0.00000749,-0.00000017,-0.00000144,-0.00001363,-0.00000340,0.0000094
 6,0.00001310,-0.00010369,-0.00001397,-0.00000620,-0.00000747,0.0000052
 0,-0.00001480,-0.00000178,0.00000070,-0.00003563,0.00005235,0.00001250
 ,0.00004765,-0.00003460,0.00004389,0.00001122,-0.00001193,0.00000485,-
 0.00003995,-0.00000413,0.00001326,0.00001122,-0.00001014,0.00000338,-0
 .00000211,0.00000471,-0.00000707,0.00000353,-0.00000105,0.00000310,-0.
 00000362,0.00000176,0.,-0.00000264,0.00000004,-0.00000218,-0.00000087,
 -0.00001164,0.00001706,0.00000129,0.00000351,-0.00000960,-0.00000602,0
 .00000832,-0.00000985,0.00007972,-0.00003150,0.00006362,0.00001226,0.0
 0002755,-0.00000611,0.00000096,-0.00001478,-0.00004060,-0.00013242,0.0
 0007981,-0.00002056,0.00002856,0.00005675,-0.00000067,0.00000194,-0.00
 001931,0.00002676,0.00017416,-0.00042841,-0.00006654,-0.00095567,0.000
 43690,0.00031202,-0.00002535,-0.00002370,0.00000965,-0.00311688,0.0010
 3988,0.00639034,-0.00067573,-0.00274088,0.00150776,0.00005988,0.000081
 80,0.00001237,0.00020010,0.00052352,0.00020448,-0.00004209,0.00003064,
 -0.00002670,0.00011919,-0.00004096,0.00003869,-0.00005349,-0.00004844,
 -0.00008483,0.00002519,-0.00000582,0.00001817,0.00000219,0.00000182,-0
 .00000258,0.00022674,0.00050717,-0.00028134,-0.00001699,-0.00000172,0.
 00000698,0.00000158,0.00000450,-0.00000672,-0.01817244,-0.01469168,0.0
 2620235,0.01903431,0.01817070,0.00002772,-0.00009432,0.00000355,0.0001
 1004,0.00025337,-0.00009320,0.00001113,-0.00006181,0.00008035,0.000000
 09,0.00000728,0.00000177,-0.00014264,-0.00000864,-0.00001228,0.0000070
 3,0.00000946,0.00000259,-0.00000119,-0.00000170,-0.00000256,-0.0000116
 0,0.00000564,-0.00000093,-0.00001237,0.00004345,-0.00000710,-0.0000010
 7,0.00000014,0.00000047,0.00001189,-0.00001180,0.00002728,-0.00004302,
 -0.00012009,0.00017274,0.00000133,-0.00000146,-0.00000090,0.00039011,-
 0.00035111,0.00030931,-0.00000621,-0.00005458,-0.00003166,-0.00000238,
 0.00000141,0.00000335,0.00000080,0.00000063,0.00000095,0.00000105,0.00
 000006,0.00000280,0.00000034,-0.00000009,0.00000089,0.00000173,-0.0000
 0068,-0.00000113,-0.00089599,0.00083677,0.00019218,-0.00060135,-0.0008
 5675,0.00017400,0.00007668,0.00001443,0.00001073,-0.00000273,0.,0.0000
 0024,-0.00000015,-0.00000063,-0.00000104,-0.00000390,-0.00000309,-0.00
 000301,0.00007325,0.00005691,-0.00003463,-0.00000700,-0.00000137,0.000
 00230,-0.00000878,-0.00000044,-0.00000695,-0.00000420,0.00001733,0.000
 00868,0.00001335,-0.00000976,0.00000541,0.00000220,-0.00000384,0.00000
 123,-0.00000767,0.00000072,-0.00000188,0.00000222,-0.00000174,0.000001
 03,0.00000028,-0.00000136,0.00000183,0.00000004,0.00000239,-0.00000269
 ,0.00000006,0.00000009,0.00000070,-0.00000031,-0.00000081,0.00000007,-
 0.00000227,0.00000200,-0.00000173,0.00000024,0.00000069,-0.00000013,0.
 00000136,-0.00000214,0.00000273,-0.00000866,-0.00000170,0.00000141,0.0
 0000125,0.00000651,-0.00000713,-0.00000261,0.00000688,0.00000959,-0.00
 004135,-0.00002893,0.00000491,-0.00007367,0.00019016,0.00000671,0.0000
 0036,0.00000177,0.00000532,-0.00008419,-0.00009376,-0.00053482,0.00102
 678,0.00023530,-0.00001663,0.00001668,0.00007144,-0.00002510,-0.000597
 09,0.00168603,-0.00002558,0.00051603,0.00083974,-0.00019221,0.00003353
 ,-0.00000716,0.00004032,-0.00017943,-0.00013139,-0.00010583,0.00000354
 ,0.00000682,0.00000058,-0.00005391,0.00003574,-0.00005009,-0.00000223,
 0.00001592,0.00001786,0.00000413,0.00000389,-0.00001166,0.00000114,-0.
 00000240,0.00000425,0.00026216,0.00001158,0.00007085,0.00000604,0.0000
 0316,-0.00000294,-0.00000001,-0.00000053,-0.00000050,0.08203925,0.0307
 1146,-0.19553144,-0.08903127,-0.03489006,0.20847375,-0.00036046,-0.000
 08768,0.00028242,-0.00001963,-0.00007963,-0.00011222,0.00003834,-0.000
 02824,-0.00006480,-0.00002985,0.00005431,-0.00002615,0.00013324,-0.000
 11941,-0.00086075,0.00001877,-0.00003362,0.00000062,0.00000466,0.00002
 027,0.00000387,0.00000230,-0.00000443,0.00000164,0.00002328,-0.0000439
 7,0.00005833,0.00001278,-0.00000253,-0.00001194,0.00007158,-0.00002800
 ,-0.00001218,0.00043227,0.00001945,-0.00031663,-0.00001698,-0.00002008
 ,0.00002714,-0.00017099,0.00018928,-0.00023252,0.00001531,0.00008695,-
 0.00001332,-0.00000145,0.00000108,-0.00001037,-0.00000436,-0.00000107,
 -0.00000091,0.00000546,-0.00000139,-0.00000582,0.00000095,-0.00000496,
 0.00002063,0.00000275,0.00000349,0.00000812,0.00096308,0.00071080,0.00
 074208,-0.00004650,0.00015603,-0.00000057,0.00012433,-0.00042684,-0.00
 042584,0.00000010,-0.00000599,0.00000863,-0.00000832,0.00000059,0.0000
 0146,0.00001428,0.00000720,-0.00000968,-0.00006942,0.00001019,0.000034
 87,0.00001739,0.00001464,0.00000168,0.00000887,0.00001254,0.00000482,0
 .00005459,-0.00006319,0.00000281,-0.00006577,0.00004374,-0.00004099,-0
 .00001204,0.00001193,-0.00000748,0.00004379,0.00000267,-0.00001789,-0.
 00001239,0.00001242,-0.00000406,0.00000260,-0.00000587,0.00000896,-0.0
 0000284,0.00000180,-0.00000482,0.00000347,-0.00000265,-0.00000053,0.00
 000406,0.00000055,0.00000204,-0.00000202,0.00001334,-0.00001854,-0.000
 00115,-0.00000253,0.00001021,0.00000706,-0.00000966,0.00001143,-0.0000
 4752,0.00000543,-0.00002455,-0.00000271,0.00000829,0.00000021,0.000002
 92,-0.00001519,-0.00001065,-0.00001153,-0.00001224,0.00001237,-0.00010
 723,-0.00003265,0.00002471,0.00003805,0.00000874,-0.00003211,-0.000001
 64,0.00002756,-0.00005176,-0.00109671,-0.00056185,0.00065585,0.0000193
 4,-0.00000671,-0.00004379,-0.00170113,-0.00074596,0.00011760,0.0002826
 9,0.00057552,-0.00004435,-0.00005707,-0.00003074,-0.00003044,-0.000087
 51,-0.00004528,-0.00000148,-0.00002173,-0.00004568,0.00001650,-0.00004
 268,0.00005291,-0.00003066,0.00006737,0.00001157,0.00005780,-0.0000389
 6,0.00000374,-0.00000387,-0.00000211,-0.00000399,0.00000679,0.00010090
 ,-0.00085567,0.00000760,0.00001783,0.00000386,-0.00000982,-0.00000238,
 -0.00000646,0.00000623,-0.20369784,0.00186616,-0.11257799,0.00879634,0
 .00021709,0.00718542,0.19641218,0.00028924,-0.00004087,-0.00038285,0.0
 0000745,-0.00006682,0.00013275,-0.00014101,0.00000947,0.00010570,0.000
 05026,-0.00005671,0.00005689,-0.00024858,0.00059075,0.00098792,-0.0000
 2843,0.00005070,-0.00000064,-0.00000192,-0.00002200,-0.00000428,0.0000
 2355,0.00002805,-0.00002733,-0.00003391,0.00002797,0.00000845,-0.00000
 628,0.00000639,0.00001330,-0.00002365,-0.00009141,0.00006391,0.0002437
 0,-0.00027858,-0.00021258,0.00001391,0.00001701,-0.00001915,0.00061208
 ,-0.00042795,0.00088927,-0.00001137,0.00012748,0.00005931,0.00000384,-
 0.00000385,0.00000999,0.00000342,-0.00000194,0.00000052,-0.00000323,-0
 .00000221,0.00000120,-0.00000509,0.00000623,-0.00002929,-0.00000367,-0
 .00000138,-0.00000769,0.00071345,-0.00166732,-0.00230656,0.00026375,-0
 .00004981,0.00026127,-0.00002649,-0.00024034,0.00007391,-0.00000454,0.
 00001127,-0.00000940,0.00000452,0.00000195,-0.00000405,-0.00000342,-0.
 00001255,0.00001029,0.00001752,0.00003941,-0.00002415,-0.00000842,-0.0
 0000974,0.00001730,-0.00001287,-0.00001554,0.00000802,-0.00002595,0.00
 003474,0.00000734,0.00002900,-0.00002454,0.00001196,0.00000507,-0.0000
 0087,0.00000240,-0.00003059,-0.00000396,0.00002263,0.00001065,-0.00001
 204,-0.00000230,-0.00000241,0.00000947,-0.00001377,0.00000389,-0.00000
 933,0.00001033,-0.00000325,0.00000289,-0.00000015,-0.00000252,-0.00000
 132,-0.00000249,0.00000191,-0.00001365,0.00001967,0.00000044,0.0000020
 8,-0.00000924,-0.00000846,0.00001272,-0.00001500,0.00006818,-0.0000144
 1,0.00004393,-0.00000053,-0.00000695,0.00000376,-0.00000014,-0.0000037
 6,-0.00001848,0.00000393,0.00011149,-0.00001241,0.00010424,-0.00010124
 ,-0.00008040,-0.00001873,-0.00002830,0.00002818,0.00011979,0.00006250,
 0.00012725,-0.00019350,-0.00022082,-0.00019802,-0.00004566,-0.00003649
 ,0.00001202,-0.00614566,0.00108023,-0.00457624,-0.00030733,0.00046146,
 -0.00029392,0.00000489,0.00001445,-0.00009006,0.00021036,-0.00020797,-
 0.00025604,-0.00000175,-0.00007085,0.00001662,-0.00001518,0.00008436,-
 0.00002580,-0.00003571,0.00004432,0.00002759,0.00000132,0.00000109,0.0
 0000127,0.00000055,0.00000935,-0.00001442,0.00035444,-0.00040312,0.000
 09579,-0.00002545,-0.00000491,0.00001199,0.00000186,0.00000686,-0.0000
 0439,0.00138590,-0.00965402,0.01003983,0.00369257,-0.00097369,0.001664
 97,-0.00081999,0.01192659,-0.00035027,0.00002169,0.00015443,0.00001025
 ,-0.00002158,0.00008448,0.00011383,0.00002423,-0.00013107,-0.00004593,
 0.00005117,-0.00001889,0.00026803,-0.00051957,-0.00020244,0.00001400,-
 0.00003683,-0.00001580,-0.00000564,0.00000762,0.00000991,0.00002523,-0
 .00002360,0.00000022,0.00001817,-0.00001672,0.00000437,-0.00000419,0.0
 0000222,0.00000190,0.00004824,-0.00000125,-0.00003088,0.00005893,0.000
 15158,-0.00029823,0.00000522,0.00000372,-0.00001682,-0.00005207,0.0001
 5730,-0.00010301,-0.00000293,0.00003086,0.00004244,-0.00000110,-0.0000
 0420,0.00000331,0.00000051,-0.00000050,-0.00000115,-0.00000914,-0.0000
 0167,0.00000770,-0.00000516,0.00000907,-0.00002391,0.00000216,-0.00000
 265,-0.00001172,0.00020554,-0.00210080,-0.00041519,0.00030803,-0.00019
 401,0.00007060,-0.00002888,0.00014350,0.00012259,0.00000112,-0.0000002
 6,-0.00000215,0.00000220,0.00000046,-0.00000046,-0.00000312,0.00000359
 ,0.00000412,-0.00001430,-0.00001905,0.00000527,0.00000550,0.00001521,0
 .00000208,0.00000457,-0.00000081,0.00000090,-0.00001069,-0.00000309,-0
 .00001640,-0.00000130,0.00000425,-0.00000631,0.00000018,-0.00000006,0.
 00000002,-0.00000619,0.00000431,0.00000918,0.00000371,-0.00000394,-0.0
 0000126,-0.00000085,0.00000323,-0.00000441,0.00000121,-0.00000357,0.00
 000365,-0.00000110,0.00000133,0.00000040,-0.00000038,-0.00000101,-0.00
 000060,-0.00000169,-0.00000510,0.00000823,0.00000039,0.00000229,-0.000
 00298,-0.00000355,0.00000491,-0.00000535,0.00005114,-0.00002153,0.0000
 4223,0.00001735,0.00002322,-0.00000292,-0.00000008,-0.00001907,-0.0000
 3025,-0.00013594,0.00003697,-0.00004804,-0.00002758,-0.00005897,0.0000
 0358,0.00001935,-0.00000596,0.00000266,0.00017372,-0.00011779,0.000171
 03,-0.00071902,0.00092336,0.00003794,0.00001166,-0.00007303,0.00000821
 ,0.00076363,-0.00182528,0.00025535,0.00067876,0.00116085,-0.00035168,-
 0.00010060,-0.00003486,0.00002749,-0.00008539,-0.00004705,-0.00034044,
 0.00001033,0.00006531,-0.00001960,-0.00001601,0.00000056,0.00002057,0.
 00003202,-0.00000716,0.00001280,-0.00000643,-0.00000161,-0.00000126,-0
 .00000014,0.00000350,-0.00000608,-0.00012104,0.00062581,-0.00000375,-0
 .00000968,-0.00000126,0.00000445,0.00000018,0.00000115,-0.00000245,-0.
 08702150,0.00715019,-0.07796897,-0.01979994,0.00074680,-0.01293695,0.1
 0573667,-0.00620644,0.09189928\\0.00000120,-0.00000411,0.00000127,-0.0
 0000007,0.00000077,-0.00000116,-0.00000024,0.00000031,0.00000054,0.000
 00080,0.00000470,0.00000234,0.00000035,0.00000116,0.00000128,-0.000004
 62,-0.00000267,0.00000054,-0.00000249,-0.00000351,-0.00000171,0.000000
 41,-0.00000131,-0.00000122,-0.00000011,0.00000029,-0.00000104,0.000005
 95,-0.00000147,-0.00000479,0.00000088,-0.00000156,0.00000090,0.0000012
 6,0.00000176,0.00000011,0.00000057,-0.00001307,0.00000985,-0.00000112,
 -0.00000183,-0.00000254,0.00000178,-0.00000085,-0.00000005,-0.00000548
 ,-0.00000493,-0.00000140,0.00000752,-0.00000418,-0.00000100,0.00000627
 ,0.00000739,-0.00000762,0.00000403,-0.00000343,-0.00000011,-0.00000012
 ,0.,0.00000168,-0.00000044,-0.00000133,-0.00000395,0.00000167,0.,-0.00
 000154,-0.00000018,0.00000061,-0.00000015,-0.00001804,0.00000317,0.000
 00303,0.00000582,-0.00000022,0.00000102,0.00000485,0.00000507,0.000000
 88,0.00000080,0.00000462,-0.00000295,0.00000147,0.00000043,0.00000250,
 0.00000018,-0.00000047,0.00000059,-0.00000305,-0.00000193,-0.00000771,
 -0.00000128,-0.00000114,-0.00000003,-0.00000371,0.00000205,0.00000087,
 -0.00000733,0.00000814,-0.00000664,0.00000087,-0.00000374,0.00000195,-
 0.00000454,-0.00000062,-0.00000122,0.00000901,-0.00001194,0.00001218,0
 .00000059,-0.00001034,0.00000194,0.00000497,0.00000402,-0.00000215,-0.
 00000594,0.00002300,-0.00000450,0.00000024,-0.00000200,-0.00000221,-0.
 00000601,-0.00000034,0.00000432,-0.00000634,0.00000073,0.00000292,0.00
 000336,0.00000050,0.00000340,0.00000326,0.00000787,-0.00000283,0.00000
 020,-0.00000132,-0.00000506,0.00000116,0.00000093,-0.00000043,0.000000
 34,0.00000002,0.00000078,-0.00000267,0.00000208,0.00000558,0.,0.000000
 15,0.00000055,0.00000115,-0.00000017,0.00000022,0.00000062,-0.00000351
 ,0.00000604,0.00000098,0.00000155,-0.00000089,-0.00000084,-0.00000133,
 0.00000077,0.00000312,0.00000169,-0.00000254,-0.00000108,-0.00000091,0
 .00000153,-0.00000259,-0.00000116,-0.00000091,0.00000119,-0.00000011,-
 0.00000083,-0.00000052,-0.00000043,-0.00000023,0.00000609,0.00000094,-
 0.00000066,0.00000029,0.00000184,-0.00000073,-0.00000021,0.00000164,0.
 00000081,-0.00000373,-0.00000350,0.00000022,-0.00000059,0.00000229,0.0
 0000004,-0.00000037,-0.00000081,0.00000028,0.00000047,0.00000048,-0.00
 000013\\\@
 The archive entry for this job was punched.


 Sacred cows make the best hamburger.
                               -- Mark Twain
 Job cpu time:       5 days 23 hours  3 minutes 12.7 seconds.
 Elapsed time:       0 days  3 hours  7 minutes 14.4 seconds.
 File lengths (MBytes):  RWF=  13880 Int=      0 D2E=      0 Chk=    136 Scr=      2
 Normal termination of Gaussian 16 at Tue Feb 21 04:32:59 2023.
