 Entering Gaussian System, Link 0=g16
 Initial command:
 /home/chesagar/softwares/G16_AVX2//g16/l1.exe "/home/chesagar/scratch/Gau-154265.inp" -scrdir="/home/chesagar/scratch/"
 Entering Link 1 = /home/chesagar/softwares/G16_AVX2//g16/l1.exe PID=    154268.
  
 Copyright (c) 1988-2019, Gaussian, Inc.  All Rights Reserved.
  
 This is part of the Gaussian(R) 16 program.  It is based on
 the Gaussian(R) 09 system (copyright 2009, Gaussian, Inc.),
 the Gaussian(R) 03 system (copyright 2003, Gaussian, Inc.),
 the Gaussian(R) 98 system (copyright 1998, Gaussian, Inc.),
 the Gaussian(R) 94 system (copyright 1995, Gaussian, Inc.),
 the Gaussian 92(TM) system (copyright 1992, Gaussian, Inc.),
 the Gaussian 90(TM) system (copyright 1990, Gaussian, Inc.),
 the Gaussian 88(TM) system (copyright 1988, Gaussian, Inc.),
 the Gaussian 86(TM) system (copyright 1986, Carnegie Mellon
 University), and the Gaussian 82(TM) system (copyright 1983,
 Carnegie Mellon University). Gaussian is a federally registered
 trademark of Gaussian, Inc.
  
 This software contains proprietary and confidential information,
 including trade secrets, belonging to Gaussian, Inc.
  
 This software is provided under written license and may be
 used, copied, transmitted, or stored only in accord with that
 written license.
  
 The following legend is applicable only to US Government
 contracts under FAR:
  
                    RESTRICTED RIGHTS LEGEND
  
 Use, reproduction and disclosure by the US Government is
 subject to restrictions as set forth in subparagraphs (a)
 and (c) of the Commercial Computer Software - Restricted
 Rights clause in FAR 52.227-19.
  
 Gaussian, Inc.
 340 Quinnipiac St., Bldg. 40, Wallingford CT 06492
  
  
 ---------------------------------------------------------------
 Warning -- This program may not be used in any manner that
 competes with the business of Gaussian, Inc. or will provide
 assistance to any competitor of Gaussian, Inc.  The licensee
 of this program is prohibited from giving any competitor of
 Gaussian, Inc. access to this program.  By using this program,
 the user acknowledges that Gaussian, Inc. is engaged in the
 business of creating and licensing software in the field of
 computational chemistry and represents and warrants to the
 licensee that it is not a competitor of Gaussian, Inc. and that
 it will not use this program in any manner prohibited above.
 ---------------------------------------------------------------
  

 Cite this work as:
 Gaussian 16, Revision C.01,
 M. J. Frisch, G. W. Trucks, H. B. Schlegel, G. E. Scuseria, 
 M. A. Robb, J. R. Cheeseman, G. Scalmani, V. Barone, 
 G. A. Petersson, H. Nakatsuji, X. Li, M. Caricato, A. V. Marenich, 
 J. Bloino, B. G. Janesko, R. Gomperts, B. Mennucci, H. P. Hratchian, 
 J. V. Ortiz, A. F. Izmaylov, J. L. Sonnenberg, D. Williams-Young, 
 F. Ding, F. Lipparini, F. Egidi, J. Goings, B. Peng, A. Petrone, 
 T. Henderson, D. Ranasinghe, V. G. Zakrzewski, J. Gao, N. Rega, 
 G. Zheng, W. Liang, M. Hada, M. Ehara, K. Toyota, R. Fukuda, 
 J. Hasegawa, M. Ishida, T. Nakajima, Y. Honda, O. Kitao, H. Nakai, 
 T. Vreven, K. Throssell, J. A. Montgomery, Jr., J. E. Peralta, 
 F. Ogliaro, M. J. Bearpark, J. J. Heyd, E. N. Brothers, K. N. Kudin, 
 V. N. Staroverov, T. A. Keith, R. Kobayashi, J. Normand, 
 K. Raghavachari, A. P. Rendell, J. C. Burant, S. S. Iyengar, 
 J. Tomasi, M. Cossi, J. M. Millam, M. Klene, C. Adamo, R. Cammi, 
 J. W. Ochterski, R. L. Martin, K. Morokuma, O. Farkas, 
 J. B. Foresman, and D. J. Fox, Gaussian, Inc., Wallingford CT, 2019.
 
 ******************************************
 Gaussian 16:  ES64L-G16RevC.01  3-Jul-2019
                20-Feb-2023 
 ******************************************
 %nprocshared=46
 Will use up to   46 processors via shared memory.
 %chk=Mo19S43_H2S_ts_f.chk
 %mem=100GB
 ----------------------------------------------------------------------
 # opt=(calcfc,ts,noeigen) freq b3lyp/gen nosymm pseudo=read scf=maxcyc
 les=500
 ----------------------------------------------------------------------
 1/5=1,10=4,11=1,18=20,26=3,38=1/1,3;
 2/9=110,12=2,15=1,17=6,18=5,40=1/2;
 3/5=7,11=2,16=1,17=8,25=1,30=1,71=2,74=-5,140=1/1,2,3;
 4//1;
 5/5=2,7=500,38=5/2;
 8/6=4,10=90,11=11/1;
 11/6=1,8=1,9=11,15=111,16=1,31=1/1,2,10;
 10/6=1,13=1,31=1/2;
 6/7=2,8=2,9=2,10=2,28=1/1;
 7/10=1,25=1,30=1/1,2,3,16;
 1/5=1,10=4,11=1,18=20,26=3/3(2);
 2/9=110,15=1/2;
 99//99;
 2/9=110,15=1/2;
 3/5=7,6=1,11=2,16=1,17=8,25=1,30=1,71=1,74=-5,82=7/1,2,3;
 4/5=5,16=3,69=1/1;
 5/5=2,7=500,38=5/2;
 7/30=1/1,2,3,16;
 1/5=1,11=1,18=20,26=3/3(-5);
 2/9=110,15=1/2;
 6/7=2,8=2,9=2,10=2,19=2,28=1/1;
 99/9=1/99;
 -------------------
 Title Card Required
 -------------------
 Symbolic Z-matrix:
 Charge =  0 Multiplicity = 1
 42                    0.249     1.2743    12.55054 
 16                    2.26612   2.18417   13.59594 
 16                   -0.81601   2.03072   14.74864 
 16                   -0.53402   0.97438   10.2722 
 16                    1.85638  -0.4345    11.93201 
 42                   -2.0964    2.68217   10.96827 
 16                   -2.9171    2.50423   8.67874 
 16                   -0.1239    3.59482   12.02546 
 42                    0.907     2.91413   9.90907 
 16                    0.09767   2.68605   7.60529 
 16                    2.52247   1.1974    9.23489 
 42                    3.30534   1.46278   11.51116 
 42                   -1.45865   4.4244    8.32959 
 16                    5.35795   2.33976   12.7287 
 16                    2.93304   3.7869    10.97574 
 16                   -2.40783   5.03852   10.48892 
 16                    1.3197    6.95459   6.49553 
 42                   -4.47612   4.2882    9.52137 
 16                   -5.971     2.2325    9.63698 
 16                   -5.52787   4.75347   11.41612 
 42                    2.55468  -0.1032    14.24328 
 16                    4.71895   0.26805   15.29711 
 16                    1.61171   0.68409   16.24171 
 42                    1.56904   4.58497   7.28477 
 16                    0.68248   4.40492   4.9035 
 16                    0.55457   5.2752    9.36809 
 42                    3.98142   3.11      8.89003 
 16                    3.21118   2.87648   6.60762 
 16                    3.55017   5.45239   8.41215 
 42                    4.57529   4.82905   6.3805 
 16                    6.78012   4.12291   6.00323 
 16                    4.34958   7.01971   5.70992 
 42                    2.45789   5.98424   4.46225 
 16                    3.95216   4.40337   3.96662 
 16                   -1.43777   7.3693    4.0903 
 42                   -0.86566   6.14199   5.71187 
 16                   -2.37871   4.35978   6.00236 
 16                   -1.7674    6.86705   7.76928 
 42                   -3.66326   6.06073   6.658 
 16                   -5.7078    4.81448   7.41552 
 16                   -4.42967   7.27852   5.11477 
 42                   -5.26452   2.28592   11.74558 
 16                   -3.35561   3.23742   13.07198 
 16                   -3.54533   0.63683   11.42871 
 42                   -2.66967   0.93518   13.73755 
 16                   -1.18622  -0.77819   13.00814 
 16                   -4.15509   0.27585   15.0853 
 42                   -0.38532  -0.30542   15.24857 
 16                    1.26565  -2.00892   14.66604 
 16                   -1.37154  -1.13595   16.92535 
 42                    5.74928   0.02519   13.05596 
 16                    4.93115  -0.35955   10.85787 
 16                    8.27855   1.07999   10.97216 
 42                    6.26827   1.64552   10.57255 
 16                    5.73346   1.26025   8.17864 
 16                    6.10713   4.05148   10.00684 
 42                    7.03979   3.15701   8.06445 
 16                    9.1055    2.75553   8.27981 
 16                    2.10632   7.06343   2.67931 
 16                    7.70854  -0.5672    13.63621 
 16                   -6.89093   1.6152    12.92112 
 16                   -5.18093   6.5049    8.57271 
 16                    4.89388  -2.38029   13.6135 
 1                     4.68301  -1.3989    14.90682 
 1                     3.60905  -2.36111   13.17871 
 
 Add virtual bond connecting atoms H64        and S22        Dist= 3.24D+00.
 Add virtual bond connecting atoms H64        and S63        Dist= 3.09D+00.

 GradGradGradGradGradGradGradGradGradGradGradGradGradGradGradGradGradGrad
 Berny optimization.
 Initialization pass.
                           ----------------------------
                           !    Initial Parameters    !
                           ! (Angstroms and Degrees)  !
 --------------------------                            --------------------------
 ! Name  Definition              Value          Derivative Info.                !
 --------------------------------------------------------------------------------
 ! R1    R(1,2)                  2.4473         calculate D2E/DX2 analytically  !
 ! R2    R(1,3)                  2.557          calculate D2E/DX2 analytically  !
 ! R3    R(1,4)                  2.4277         calculate D2E/DX2 analytically  !
 ! R4    R(1,5)                  2.4262         calculate D2E/DX2 analytically  !
 ! R5    R(1,8)                  2.4082         calculate D2E/DX2 analytically  !
 ! R6    R(1,46)                 2.546          calculate D2E/DX2 analytically  !
 ! R7    R(2,12)                 2.4386         calculate D2E/DX2 analytically  !
 ! R8    R(2,21)                 2.3947         calculate D2E/DX2 analytically  !
 ! R9    R(3,45)                 2.3788         calculate D2E/DX2 analytically  !
 ! R10   R(3,48)                 2.4275         calculate D2E/DX2 analytically  !
 ! R11   R(4,6)                  2.417          calculate D2E/DX2 analytically  !
 ! R12   R(4,9)                  2.4436         calculate D2E/DX2 analytically  !
 ! R13   R(5,12)                 2.4241         calculate D2E/DX2 analytically  !
 ! R14   R(5,21)                 2.4371         calculate D2E/DX2 analytically  !
 ! R15   R(6,7)                  2.4387         calculate D2E/DX2 analytically  !
 ! R16   R(6,8)                  2.4169         calculate D2E/DX2 analytically  !
 ! R17   R(6,16)                 2.4247         calculate D2E/DX2 analytically  !
 ! R18   R(6,43)                 2.5139         calculate D2E/DX2 analytically  !
 ! R19   R(6,44)                 2.5485         calculate D2E/DX2 analytically  !
 ! R20   R(7,13)                 2.4364         calculate D2E/DX2 analytically  !
 ! R21   R(7,18)                 2.5146         calculate D2E/DX2 analytically  !
 ! R22   R(8,9)                  2.4506         calculate D2E/DX2 analytically  !
 ! R23   R(9,10)                 2.4524         calculate D2E/DX2 analytically  !
 ! R24   R(9,11)                 2.4518         calculate D2E/DX2 analytically  !
 ! R25   R(9,15)                 2.4504         calculate D2E/DX2 analytically  !
 ! R26   R(9,26)                 2.4478         calculate D2E/DX2 analytically  !
 ! R27   R(10,13)                2.4431         calculate D2E/DX2 analytically  !
 ! R28   R(10,24)                2.4235         calculate D2E/DX2 analytically  !
 ! R29   R(11,12)                2.4217         calculate D2E/DX2 analytically  !
 ! R30   R(11,27)                2.4301         calculate D2E/DX2 analytically  !
 ! R31   R(12,14)                2.5426         calculate D2E/DX2 analytically  !
 ! R32   R(12,15)                2.4139         calculate D2E/DX2 analytically  !
 ! R33   R(12,52)                2.528          calculate D2E/DX2 analytically  !
 ! R34   R(12,54)                3.1134         calculate D2E/DX2 analytically  !
 ! R35   R(13,16)                2.4374         calculate D2E/DX2 analytically  !
 ! R36   R(13,26)                2.4198         calculate D2E/DX2 analytically  !
 ! R37   R(13,37)                2.5033         calculate D2E/DX2 analytically  !
 ! R38   R(13,38)                2.525          calculate D2E/DX2 analytically  !
 ! R39   R(14,51)                2.3701         calculate D2E/DX2 analytically  !
 ! R40   R(14,54)                2.4412         calculate D2E/DX2 analytically  !
 ! R41   R(15,27)                2.4305         calculate D2E/DX2 analytically  !
 ! R42   R(16,18)                2.4035         calculate D2E/DX2 analytically  !
 ! R43   R(17,24)                2.51           calculate D2E/DX2 analytically  !
 ! R44   R(17,33)                2.5241         calculate D2E/DX2 analytically  !
 ! R45   R(17,36)                2.4597         calculate D2E/DX2 analytically  !
 ! R46   R(18,19)                2.5444         calculate D2E/DX2 analytically  !
 ! R47   R(18,20)                2.2165         calculate D2E/DX2 analytically  !
 ! R48   R(18,40)                2.4957         calculate D2E/DX2 analytically  !
 ! R49   R(18,42)                3.0948         calculate D2E/DX2 analytically  !
 ! R50   R(18,62)                2.5121         calculate D2E/DX2 analytically  !
 ! R51   R(19,42)                2.2244         calculate D2E/DX2 analytically  !
 ! R52   R(20,42)                2.5033         calculate D2E/DX2 analytically  !
 ! R53   R(21,22)                2.4357         calculate D2E/DX2 analytically  !
 ! R54   R(21,23)                2.3458         calculate D2E/DX2 analytically  !
 ! R55   R(21,48)                3.1137         calculate D2E/DX2 analytically  !
 ! R56   R(21,49)                2.3392         calculate D2E/DX2 analytically  !
 ! R57   R(22,51)                2.4786         calculate D2E/DX2 analytically  !
 ! R58   R(22,64)                1.7124         calculate D2E/DX2 analytically  !
 ! R59   R(23,48)                2.44           calculate D2E/DX2 analytically  !
 ! R60   R(24,25)                2.5473         calculate D2E/DX2 analytically  !
 ! R61   R(24,26)                2.4178         calculate D2E/DX2 analytically  !
 ! R62   R(24,28)                2.4646         calculate D2E/DX2 analytically  !
 ! R63   R(24,29)                2.4389         calculate D2E/DX2 analytically  !
 ! R64   R(25,33)                2.4168         calculate D2E/DX2 analytically  !
 ! R65   R(25,36)                2.4633         calculate D2E/DX2 analytically  !
 ! R66   R(27,28)                2.4202         calculate D2E/DX2 analytically  !
 ! R67   R(27,29)                2.4292         calculate D2E/DX2 analytically  !
 ! R68   R(27,30)                3.0993         calculate D2E/DX2 analytically  !
 ! R69   R(27,55)                2.6452         calculate D2E/DX2 analytically  !
 ! R70   R(27,56)                2.5792         calculate D2E/DX2 analytically  !
 ! R71   R(28,30)                2.3927         calculate D2E/DX2 analytically  !
 ! R72   R(29,30)                2.3595         calculate D2E/DX2 analytically  !
 ! R73   R(30,31)                2.3457         calculate D2E/DX2 analytically  !
 ! R74   R(30,32)                2.3021         calculate D2E/DX2 analytically  !
 ! R75   R(30,33)                3.0818         calculate D2E/DX2 analytically  !
 ! R76   R(30,34)                2.5291         calculate D2E/DX2 analytically  !
 ! R77   R(31,57)                2.2911         calculate D2E/DX2 analytically  !
 ! R78   R(32,33)                2.4915         calculate D2E/DX2 analytically  !
 ! R79   R(33,34)                2.2311         calculate D2E/DX2 analytically  !
 ! R80   R(33,59)                2.1136         calculate D2E/DX2 analytically  !
 ! R81   R(35,36)                2.1126         calculate D2E/DX2 analytically  !
 ! R82   R(36,37)                2.3558         calculate D2E/DX2 analytically  !
 ! R83   R(36,38)                2.3605         calculate D2E/DX2 analytically  !
 ! R84   R(36,39)                2.9544         calculate D2E/DX2 analytically  !
 ! R85   R(37,39)                2.2301         calculate D2E/DX2 analytically  !
 ! R86   R(38,39)                2.3408         calculate D2E/DX2 analytically  !
 ! R87   R(39,40)                2.5114         calculate D2E/DX2 analytically  !
 ! R88   R(39,41)                2.11           calculate D2E/DX2 analytically  !
 ! R89   R(39,62)                2.4833         calculate D2E/DX2 analytically  !
 ! R90   R(40,62)                2.1152         calculate D2E/DX2 analytically  !
 ! R91   R(42,43)                2.5117         calculate D2E/DX2 analytically  !
 ! R92   R(42,44)                2.4032         calculate D2E/DX2 analytically  !
 ! R93   R(42,61)                2.1159         calculate D2E/DX2 analytically  !
 ! R94   R(43,45)                2.4928         calculate D2E/DX2 analytically  !
 ! R95   R(44,45)                2.4873         calculate D2E/DX2 analytically  !
 ! R96   R(45,46)                2.3808         calculate D2E/DX2 analytically  !
 ! R97   R(45,47)                2.1113         calculate D2E/DX2 analytically  !
 ! R98   R(45,48)                3.0067         calculate D2E/DX2 analytically  !
 ! R99   R(46,48)                2.4258         calculate D2E/DX2 analytically  !
 ! R100  R(48,49)                2.4427         calculate D2E/DX2 analytically  !
 ! R101  R(48,50)                2.1152         calculate D2E/DX2 analytically  !
 ! R102  R(51,52)                2.3767         calculate D2E/DX2 analytically  !
 ! R103  R(51,54)                3.0103         calculate D2E/DX2 analytically  !
 ! R104  R(51,60)                2.1275         calculate D2E/DX2 analytically  !
 ! R105  R(51,63)                2.6132         calculate D2E/DX2 analytically  !
 ! R106  R(52,54)                2.4268         calculate D2E/DX2 analytically  !
 ! R107  R(53,54)                2.1262         calculate D2E/DX2 analytically  !
 ! R108  R(54,55)                2.483          calculate D2E/DX2 analytically  !
 ! R109  R(54,56)                2.4768         calculate D2E/DX2 analytically  !
 ! R110  R(54,57)                3.0283         calculate D2E/DX2 analytically  !
 ! R111  R(55,57)                2.3059         calculate D2E/DX2 analytically  !
 ! R112  R(56,57)                2.333          calculate D2E/DX2 analytically  !
 ! R113  R(57,58)                2.1154         calculate D2E/DX2 analytically  !
 ! R114  R(63,64)                1.6371         calculate D2E/DX2 analytically  !
 ! R115  R(63,65)                1.3565         calculate D2E/DX2 analytically  !
 ! A1    A(2,1,3)               82.3053         calculate D2E/DX2 analytically  !
 ! A2    A(2,1,4)              135.4494         calculate D2E/DX2 analytically  !
 ! A3    A(2,1,5)               79.9037         calculate D2E/DX2 analytically  !
 ! A4    A(2,1,8)               82.098          calculate D2E/DX2 analytically  !
 ! A5    A(2,1,46)             133.4379         calculate D2E/DX2 analytically  !
 ! A6    A(3,1,4)              135.1503         calculate D2E/DX2 analytically  !
 ! A7    A(3,1,5)              134.7061         calculate D2E/DX2 analytically  !
 ! A8    A(3,1,8)               80.6705         calculate D2E/DX2 analytically  !
 ! A9    A(3,1,46)              81.3257         calculate D2E/DX2 analytically  !
 ! A10   A(4,1,5)               83.5358         calculate D2E/DX2 analytically  !
 ! A11   A(4,1,8)               82.2112         calculate D2E/DX2 analytically  !
 ! A12   A(4,1,46)              83.5267         calculate D2E/DX2 analytically  !
 ! A13   A(5,1,8)              136.5245         calculate D2E/DX2 analytically  !
 ! A14   A(5,1,46)              81.4597         calculate D2E/DX2 analytically  !
 ! A15   A(8,1,46)             136.7783         calculate D2E/DX2 analytically  !
 ! A16   A(1,2,12)              82.8817         calculate D2E/DX2 analytically  !
 ! A17   A(1,2,21)              81.9331         calculate D2E/DX2 analytically  !
 ! A18   A(12,2,21)             84.0986         calculate D2E/DX2 analytically  !
 ! A19   A(1,3,45)              79.8008         calculate D2E/DX2 analytically  !
 ! A20   A(1,3,48)              79.5399         calculate D2E/DX2 analytically  !
 ! A21   A(1,4,6)               81.4272         calculate D2E/DX2 analytically  !
 ! A22   A(1,4,9)               81.4423         calculate D2E/DX2 analytically  !
 ! A23   A(6,4,9)               82.1323         calculate D2E/DX2 analytically  !
 ! A24   A(1,5,12)              83.628          calculate D2E/DX2 analytically  !
 ! A25   A(1,5,21)              81.5067         calculate D2E/DX2 analytically  !
 ! A26   A(12,5,21)             83.5106         calculate D2E/DX2 analytically  !
 ! A27   A(4,6,7)               84.008          calculate D2E/DX2 analytically  !
 ! A28   A(4,6,8)               82.2545         calculate D2E/DX2 analytically  !
 ! A29   A(4,6,16)             135.4579         calculate D2E/DX2 analytically  !
 ! A30   A(4,6,43)             136.1245         calculate D2E/DX2 analytically  !
 ! A31   A(4,6,44)              81.5163         calculate D2E/DX2 analytically  !
 ! A32   A(7,6,8)              135.4691         calculate D2E/DX2 analytically  !
 ! A33   A(7,6,16)              80.9137         calculate D2E/DX2 analytically  !
 ! A34   A(7,6,43)             129.2872         calculate D2E/DX2 analytically  !
 ! A35   A(7,6,44)              85.3957         calculate D2E/DX2 analytically  !
 ! A36   A(8,6,16)              79.8822         calculate D2E/DX2 analytically  !
 ! A37   A(8,6,43)              87.6703         calculate D2E/DX2 analytically  !
 ! A38   A(8,6,44)             133.4753         calculate D2E/DX2 analytically  !
 ! A39   A(16,6,43)             83.4802         calculate D2E/DX2 analytically  !
 ! A40   A(16,6,44)            137.9569         calculate D2E/DX2 analytically  !
 ! A41   A(43,6,44)             75.0066         calculate D2E/DX2 analytically  !
 ! A42   A(6,7,13)              82.853          calculate D2E/DX2 analytically  !
 ! A43   A(6,7,18)              80.9255         calculate D2E/DX2 analytically  !
 ! A44   A(13,7,18)             81.9536         calculate D2E/DX2 analytically  !
 ! A45   A(1,8,6)               81.8297         calculate D2E/DX2 analytically  !
 ! A46   A(1,8,9)               81.6923         calculate D2E/DX2 analytically  !
 ! A47   A(6,8,9)               81.991          calculate D2E/DX2 analytically  !
 ! A48   A(4,9,8)               81.0293         calculate D2E/DX2 analytically  !
 ! A49   A(4,9,10)              82.5975         calculate D2E/DX2 analytically  !
 ! A50   A(4,9,11)              82.7385         calculate D2E/DX2 analytically  !
 ! A51   A(4,9,15)             134.8819         calculate D2E/DX2 analytically  !
 ! A52   A(4,9,26)             135.5317         calculate D2E/DX2 analytically  !
 ! A53   A(8,9,10)             134.29           calculate D2E/DX2 analytically  !
 ! A54   A(8,9,11)             135.1655         calculate D2E/DX2 analytically  !
 ! A55   A(8,9,15)              82.7004         calculate D2E/DX2 analytically  !
 ! A56   A(8,9,26)              82.0891         calculate D2E/DX2 analytically  !
 ! A57   A(10,9,11)             83.9165         calculate D2E/DX2 analytically  !
 ! A58   A(10,9,15)            135.6359         calculate D2E/DX2 analytically  !
 ! A59   A(10,9,26)             80.4783         calculate D2E/DX2 analytically  !
 ! A60   A(11,9,15)             79.8809         calculate D2E/DX2 analytically  !
 ! A61   A(11,9,26)            135.1932         calculate D2E/DX2 analytically  !
 ! A62   A(15,9,26)             82.628          calculate D2E/DX2 analytically  !
 ! A63   A(9,10,13)             82.2735         calculate D2E/DX2 analytically  !
 ! A64   A(9,10,24)             81.4317         calculate D2E/DX2 analytically  !
 ! A65   A(13,10,24)            82.4406         calculate D2E/DX2 analytically  !
 ! A66   A(9,11,12)             82.9817         calculate D2E/DX2 analytically  !
 ! A67   A(9,11,27)             83.3109         calculate D2E/DX2 analytically  !
 ! A68   A(12,11,27)            81.5505         calculate D2E/DX2 analytically  !
 ! A69   A(2,12,5)              80.1182         calculate D2E/DX2 analytically  !
 ! A70   A(2,12,11)            134.2845         calculate D2E/DX2 analytically  !
 ! A71   A(2,12,14)             80.3643         calculate D2E/DX2 analytically  !
 ! A72   A(2,12,15)             80.7396         calculate D2E/DX2 analytically  !
 ! A73   A(2,12,52)            135.0919         calculate D2E/DX2 analytically  !
 ! A74   A(2,12,54)            130.2356         calculate D2E/DX2 analytically  !
 ! A75   A(5,12,11)             83.3494         calculate D2E/DX2 analytically  !
 ! A76   A(5,12,14)            132.0185         calculate D2E/DX2 analytically  !
 ! A77   A(5,12,15)            134.4179         calculate D2E/DX2 analytically  !
 ! A78   A(5,12,52)             82.2463         calculate D2E/DX2 analytically  !
 ! A79   A(5,12,54)            131.845          calculate D2E/DX2 analytically  !
 ! A80   A(11,12,14)           138.4926         calculate D2E/DX2 analytically  !
 ! A81   A(11,12,15)            81.2085         calculate D2E/DX2 analytically  !
 ! A82   A(11,12,52)            83.4543         calculate D2E/DX2 analytically  !
 ! A83   A(11,12,54)            91.7597         calculate D2E/DX2 analytically  !
 ! A84   A(14,12,15)            84.1823         calculate D2E/DX2 analytically  !
 ! A85   A(14,12,52)            81.5584         calculate D2E/DX2 analytically  !
 ! A86   A(15,12,52)           137.3844         calculate D2E/DX2 analytically  !
 ! A87   A(15,12,54)            91.3407         calculate D2E/DX2 analytically  !
 ! A88   A(7,13,10)             82.128          calculate D2E/DX2 analytically  !
 ! A89   A(7,13,16)             80.706          calculate D2E/DX2 analytically  !
 ! A90   A(7,13,26)            135.5311         calculate D2E/DX2 analytically  !
 ! A91   A(7,13,37)             83.85           calculate D2E/DX2 analytically  !
 ! A92   A(7,13,38)            136.1376         calculate D2E/DX2 analytically  !
 ! A93   A(10,13,16)           133.6307         calculate D2E/DX2 analytically  !
 ! A94   A(10,13,26)            81.2232         calculate D2E/DX2 analytically  !
 ! A95   A(10,13,37)            86.5689         calculate D2E/DX2 analytically  !
 ! A96   A(10,13,38)           134.4619         calculate D2E/DX2 analytically  !
 ! A97   A(16,13,26)            81.6741         calculate D2E/DX2 analytically  !
 ! A98   A(16,13,37)           133.3912         calculate D2E/DX2 analytically  !
 ! A99   A(16,13,38)            84.5621         calculate D2E/DX2 analytically  !
 ! A100  A(26,13,37)           135.548          calculate D2E/DX2 analytically  !
 ! A101  A(26,13,38)            81.7692         calculate D2E/DX2 analytically  !
 ! A102  A(37,13,38)            76.923          calculate D2E/DX2 analytically  !
 ! A103  A(12,14,51)            82.1011         calculate D2E/DX2 analytically  !
 ! A104  A(9,15,12)             83.174          calculate D2E/DX2 analytically  !
 ! A105  A(9,15,27)             83.3327         calculate D2E/DX2 analytically  !
 ! A106  A(12,15,27)            81.7014         calculate D2E/DX2 analytically  !
 ! A107  A(6,16,13)             83.1235         calculate D2E/DX2 analytically  !
 ! A108  A(6,16,18)             83.4964         calculate D2E/DX2 analytically  !
 ! A109  A(13,16,18)            84.2507         calculate D2E/DX2 analytically  !
 ! A110  A(24,17,33)            81.1164         calculate D2E/DX2 analytically  !
 ! A111  A(24,17,36)            82.909          calculate D2E/DX2 analytically  !
 ! A112  A(33,17,36)            90.9732         calculate D2E/DX2 analytically  !
 ! A113  A(7,18,16)             79.7961         calculate D2E/DX2 analytically  !
 ! A114  A(7,18,19)             78.8309         calculate D2E/DX2 analytically  !
 ! A115  A(7,18,20)            136.851          calculate D2E/DX2 analytically  !
 ! A116  A(7,18,40)             99.9524         calculate D2E/DX2 analytically  !
 ! A117  A(7,18,42)             86.5471         calculate D2E/DX2 analytically  !
 ! A118  A(7,18,62)            132.333          calculate D2E/DX2 analytically  !
 ! A119  A(16,18,19)           137.6884         calculate D2E/DX2 analytically  !
 ! A120  A(16,18,20)            89.9242         calculate D2E/DX2 analytically  !
 ! A121  A(16,18,40)           134.3087         calculate D2E/DX2 analytically  !
 ! A122  A(16,18,42)            97.578          calculate D2E/DX2 analytically  !
 ! A123  A(16,18,62)            96.7761         calculate D2E/DX2 analytically  !
 ! A124  A(19,18,20)            81.487          calculate D2E/DX2 analytically  !
 ! A125  A(19,18,40)            85.3402         calculate D2E/DX2 analytically  !
 ! A126  A(19,18,62)           124.4203         calculate D2E/DX2 analytically  !
 ! A127  A(20,18,40)           116.2868         calculate D2E/DX2 analytically  !
 ! A128  A(20,18,62)            90.2556         calculate D2E/DX2 analytically  !
 ! A129  A(40,18,42)           128.1067         calculate D2E/DX2 analytically  !
 ! A130  A(42,18,62)           140.4297         calculate D2E/DX2 analytically  !
 ! A131  A(2,21,5)              80.7321         calculate D2E/DX2 analytically  !
 ! A132  A(2,21,22)             94.4991         calculate D2E/DX2 analytically  !
 ! A133  A(2,21,23)             82.0259         calculate D2E/DX2 analytically  !
 ! A134  A(2,21,48)             92.0362         calculate D2E/DX2 analytically  !
 ! A135  A(2,21,49)            139.5191         calculate D2E/DX2 analytically  !
 ! A136  A(5,21,22)            133.2873         calculate D2E/DX2 analytically  !
 ! A137  A(5,21,23)            137.594          calculate D2E/DX2 analytically  !
 ! A138  A(5,21,48)             91.5367         calculate D2E/DX2 analytically  !
 ! A139  A(5,21,49)             84.4195         calculate D2E/DX2 analytically  !
 ! A140  A(22,21,23)            86.4132         calculate D2E/DX2 analytically  !
 ! A141  A(22,21,48)           135.1711         calculate D2E/DX2 analytically  !
 ! A142  A(22,21,49)           122.3865         calculate D2E/DX2 analytically  !
 ! A143  A(23,21,49)            84.1424         calculate D2E/DX2 analytically  !
 ! A144  A(21,22,51)            87.8922         calculate D2E/DX2 analytically  !
 ! A145  A(21,22,64)            74.5953         calculate D2E/DX2 analytically  !
 ! A146  A(51,22,64)            72.9776         calculate D2E/DX2 analytically  !
 ! A147  A(10,24,17)           136.1353         calculate D2E/DX2 analytically  !
 ! A148  A(10,24,25)            81.7757         calculate D2E/DX2 analytically  !
 ! A149  A(10,24,26)            81.6618         calculate D2E/DX2 analytically  !
 ! A150  A(10,24,28)            84.1281         calculate D2E/DX2 analytically  !
 ! A151  A(10,24,29)           135.2916         calculate D2E/DX2 analytically  !
 ! A152  A(17,24,25)            74.8239         calculate D2E/DX2 analytically  !
 ! A153  A(17,24,26)            87.6933         calculate D2E/DX2 analytically  !
 ! A154  A(17,24,28)           129.3639         calculate D2E/DX2 analytically  !
 ! A155  A(17,24,29)            83.7007         calculate D2E/DX2 analytically  !
 ! A156  A(25,24,26)           132.8152         calculate D2E/DX2 analytically  !
 ! A157  A(25,24,28)            85.7591         calculate D2E/DX2 analytically  !
 ! A158  A(25,24,29)           137.7283         calculate D2E/DX2 analytically  !
 ! A159  A(26,24,28)           135.5786         calculate D2E/DX2 analytically  !
 ! A160  A(26,24,29)            80.8512         calculate D2E/DX2 analytically  !
 ! A161  A(28,24,29)            80.3471         calculate D2E/DX2 analytically  !
 ! A162  A(24,25,33)            82.4619         calculate D2E/DX2 analytically  !
 ! A163  A(24,25,36)            82.0745         calculate D2E/DX2 analytically  !
 ! A164  A(33,25,36)            93.4852         calculate D2E/DX2 analytically  !
 ! A165  A(9,26,13)             82.8478         calculate D2E/DX2 analytically  !
 ! A166  A(9,26,24)             81.6428         calculate D2E/DX2 analytically  !
 ! A167  A(13,26,24)            83.0454         calculate D2E/DX2 analytically  !
 ! A168  A(11,27,15)            80.7034         calculate D2E/DX2 analytically  !
 ! A169  A(11,27,28)            82.3466         calculate D2E/DX2 analytically  !
 ! A170  A(11,27,29)           132.8623         calculate D2E/DX2 analytically  !
 ! A171  A(11,27,30)           131.7962         calculate D2E/DX2 analytically  !
 ! A172  A(11,27,55)            83.4223         calculate D2E/DX2 analytically  !
 ! A173  A(11,27,56)           136.1077         calculate D2E/DX2 analytically  !
 ! A174  A(15,27,28)           134.3368         calculate D2E/DX2 analytically  !
 ! A175  A(15,27,29)            79.8452         calculate D2E/DX2 analytically  !
 ! A176  A(15,27,30)           128.5364         calculate D2E/DX2 analytically  !
 ! A177  A(15,27,55)           135.3344         calculate D2E/DX2 analytically  !
 ! A178  A(15,27,56)            83.2385         calculate D2E/DX2 analytically  !
 ! A179  A(28,27,29)            81.4319         calculate D2E/DX2 analytically  !
 ! A180  A(28,27,55)            83.6673         calculate D2E/DX2 analytically  !
 ! A181  A(28,27,56)           134.9009         calculate D2E/DX2 analytically  !
 ! A182  A(29,27,55)           137.6425         calculate D2E/DX2 analytically  !
 ! A183  A(29,27,56)            83.0799         calculate D2E/DX2 analytically  !
 ! A184  A(30,27,55)            92.4754         calculate D2E/DX2 analytically  !
 ! A185  A(30,27,56)            89.4397         calculate D2E/DX2 analytically  !
 ! A186  A(55,27,56)            79.9694         calculate D2E/DX2 analytically  !
 ! A187  A(24,28,27)            83.4571         calculate D2E/DX2 analytically  !
 ! A188  A(24,28,30)            80.8067         calculate D2E/DX2 analytically  !
 ! A189  A(24,29,27)            83.8113         calculate D2E/DX2 analytically  !
 ! A190  A(24,29,30)            82.0064         calculate D2E/DX2 analytically  !
 ! A191  A(27,30,31)            98.2424         calculate D2E/DX2 analytically  !
 ! A192  A(27,30,32)           138.1495         calculate D2E/DX2 analytically  !
 ! A193  A(27,30,33)           125.4689         calculate D2E/DX2 analytically  !
 ! A194  A(27,30,34)           129.2168         calculate D2E/DX2 analytically  !
 ! A195  A(28,30,29)            83.4629         calculate D2E/DX2 analytically  !
 ! A196  A(28,30,31)           107.7872         calculate D2E/DX2 analytically  !
 ! A197  A(28,30,32)           138.4446         calculate D2E/DX2 analytically  !
 ! A198  A(28,30,33)            88.4684         calculate D2E/DX2 analytically  !
 ! A199  A(28,30,34)            79.2092         calculate D2E/DX2 analytically  !
 ! A200  A(29,30,31)           128.7853         calculate D2E/DX2 analytically  !
 ! A201  A(29,30,32)            87.5254         calculate D2E/DX2 analytically  !
 ! A202  A(29,30,33)            97.957          calculate D2E/DX2 analytically  !
 ! A203  A(29,30,34)           139.3992         calculate D2E/DX2 analytically  !
 ! A204  A(31,30,32)           109.3767         calculate D2E/DX2 analytically  !
 ! A205  A(31,30,33)           131.1884         calculate D2E/DX2 analytically  !
 ! A206  A(31,30,34)            91.5707         calculate D2E/DX2 analytically  !
 ! A207  A(32,30,34)            81.836          calculate D2E/DX2 analytically  !
 ! A208  A(30,31,57)            95.0918         calculate D2E/DX2 analytically  !
 ! A209  A(17,33,25)            76.8731         calculate D2E/DX2 analytically  !
 ! A210  A(17,33,30)            87.2781         calculate D2E/DX2 analytically  !
 ! A211  A(17,33,32)            77.2441         calculate D2E/DX2 analytically  !
 ! A212  A(17,33,34)           138.8816         calculate D2E/DX2 analytically  !
 ! A213  A(17,33,59)           114.0936         calculate D2E/DX2 analytically  !
 ! A214  A(25,33,30)            98.4028         calculate D2E/DX2 analytically  !
 ! A215  A(25,33,32)           137.5545         calculate D2E/DX2 analytically  !
 ! A216  A(25,33,34)            93.9872         calculate D2E/DX2 analytically  !
 ! A217  A(25,33,59)           111.4373         calculate D2E/DX2 analytically  !
 ! A218  A(30,33,59)           146.1768         calculate D2E/DX2 analytically  !
 ! A219  A(32,33,34)            84.1005         calculate D2E/DX2 analytically  !
 ! A220  A(32,33,59)           109.6656         calculate D2E/DX2 analytically  !
 ! A221  A(34,33,59)           106.6073         calculate D2E/DX2 analytically  !
 ! A222  A(17,36,25)            77.24           calculate D2E/DX2 analytically  !
 ! A223  A(17,36,35)           107.051          calculate D2E/DX2 analytically  !
 ! A224  A(17,36,37)           141.3754         calculate D2E/DX2 analytically  !
 ! A225  A(17,36,38)            87.721          calculate D2E/DX2 analytically  !
 ! A226  A(17,36,39)           138.449          calculate D2E/DX2 analytically  !
 ! A227  A(25,36,35)           109.1466         calculate D2E/DX2 analytically  !
 ! A228  A(25,36,37)            84.8732         calculate D2E/DX2 analytically  !
 ! A229  A(25,36,38)           137.9659         calculate D2E/DX2 analytically  !
 ! A230  A(25,36,39)           132.9098         calculate D2E/DX2 analytically  !
 ! A231  A(35,36,37)           111.1132         calculate D2E/DX2 analytically  !
 ! A232  A(35,36,38)           112.7756         calculate D2E/DX2 analytically  !
 ! A233  A(35,36,39)            90.3068         calculate D2E/DX2 analytically  !
 ! A234  A(37,36,38)            83.0815         calculate D2E/DX2 analytically  !
 ! A235  A(13,37,36)            81.8974         calculate D2E/DX2 analytically  !
 ! A236  A(13,37,39)            85.3366         calculate D2E/DX2 analytically  !
 ! A237  A(13,38,36)            81.3474         calculate D2E/DX2 analytically  !
 ! A238  A(13,38,39)            82.5975         calculate D2E/DX2 analytically  !
 ! A239  A(36,39,40)           151.7811         calculate D2E/DX2 analytically  !
 ! A240  A(36,39,41)            95.3854         calculate D2E/DX2 analytically  !
 ! A241  A(36,39,62)           145.1576         calculate D2E/DX2 analytically  !
 ! A242  A(37,39,38)            86.318          calculate D2E/DX2 analytically  !
 ! A243  A(37,39,40)           100.3182         calculate D2E/DX2 analytically  !
 ! A244  A(37,39,41)           115.7482         calculate D2E/DX2 analytically  !
 ! A245  A(37,39,62)           135.655          calculate D2E/DX2 analytically  !
 ! A246  A(38,39,40)           133.4006         calculate D2E/DX2 analytically  !
 ! A247  A(38,39,41)           116.2705         calculate D2E/DX2 analytically  !
 ! A248  A(38,39,62)            93.8606         calculate D2E/DX2 analytically  !
 ! A249  A(40,39,41)           102.1992         calculate D2E/DX2 analytically  !
 ! A250  A(41,39,62)           103.8108         calculate D2E/DX2 analytically  !
 ! A251  A(18,40,39)            87.5573         calculate D2E/DX2 analytically  !
 ! A252  A(18,42,43)            86.6074         calculate D2E/DX2 analytically  !
 ! A253  A(18,42,44)            99.6108         calculate D2E/DX2 analytically  !
 ! A254  A(18,42,61)           143.1487         calculate D2E/DX2 analytically  !
 ! A255  A(19,42,20)            82.2707         calculate D2E/DX2 analytically  !
 ! A256  A(19,42,43)           138.6821         calculate D2E/DX2 analytically  !
 ! A257  A(19,42,44)            94.9181         calculate D2E/DX2 analytically  !
 ! A258  A(19,42,61)           105.9564         calculate D2E/DX2 analytically  !
 ! A259  A(20,42,43)            77.0581         calculate D2E/DX2 analytically  !
 ! A260  A(20,42,44)           137.2472         calculate D2E/DX2 analytically  !
 ! A261  A(20,42,61)           107.741          calculate D2E/DX2 analytically  !
 ! A262  A(43,42,44)            77.6371         calculate D2E/DX2 analytically  !
 ! A263  A(43,42,61)           114.2605         calculate D2E/DX2 analytically  !
 ! A264  A(44,42,61)           113.9297         calculate D2E/DX2 analytically  !
 ! A265  A(6,43,42)             81.6681         calculate D2E/DX2 analytically  !
 ! A266  A(6,43,45)             83.2007         calculate D2E/DX2 analytically  !
 ! A267  A(42,43,45)            90.0148         calculate D2E/DX2 analytically  !
 ! A268  A(6,44,42)             83.0974         calculate D2E/DX2 analytically  !
 ! A269  A(6,44,45)             82.6041         calculate D2E/DX2 analytically  !
 ! A270  A(42,44,45)            92.7022         calculate D2E/DX2 analytically  !
 ! A271  A(3,45,43)             84.4087         calculate D2E/DX2 analytically  !
 ! A272  A(3,45,44)            136.3974         calculate D2E/DX2 analytically  !
 ! A273  A(3,45,46)             88.632          calculate D2E/DX2 analytically  !
 ! A274  A(3,45,47)            114.8812         calculate D2E/DX2 analytically  !
 ! A275  A(43,45,44)            76.4708         calculate D2E/DX2 analytically  !
 ! A276  A(43,45,46)           138.9651         calculate D2E/DX2 analytically  !
 ! A277  A(43,45,47)           105.3823         calculate D2E/DX2 analytically  !
 ! A278  A(43,45,48)           136.4118         calculate D2E/DX2 analytically  !
 ! A279  A(44,45,46)            81.2945         calculate D2E/DX2 analytically  !
 ! A280  A(44,45,47)           107.9026         calculate D2E/DX2 analytically  !
 ! A281  A(44,45,48)           133.194          calculate D2E/DX2 analytically  !
 ! A282  A(46,45,47)           114.1549         calculate D2E/DX2 analytically  !
 ! A283  A(47,45,48)            94.8687         calculate D2E/DX2 analytically  !
 ! A284  A(1,46,45)             79.9878         calculate D2E/DX2 analytically  !
 ! A285  A(1,46,48)             79.791          calculate D2E/DX2 analytically  !
 ! A286  A(3,48,21)             92.2084         calculate D2E/DX2 analytically  !
 ! A287  A(3,48,23)             80.7215         calculate D2E/DX2 analytically  !
 ! A288  A(3,48,46)             86.4898         calculate D2E/DX2 analytically  !
 ! A289  A(3,48,49)            137.8949         calculate D2E/DX2 analytically  !
 ! A290  A(3,48,50)            117.2838         calculate D2E/DX2 analytically  !
 ! A291  A(21,48,45)           121.8914         calculate D2E/DX2 analytically  !
 ! A292  A(21,48,46)            91.502          calculate D2E/DX2 analytically  !
 ! A293  A(21,48,50)           136.1943         calculate D2E/DX2 analytically  !
 ! A294  A(23,48,45)           131.2263         calculate D2E/DX2 analytically  !
 ! A295  A(23,48,46)           136.4839         calculate D2E/DX2 analytically  !
 ! A296  A(23,48,49)            80.0207         calculate D2E/DX2 analytically  !
 ! A297  A(23,48,50)           102.6023         calculate D2E/DX2 analytically  !
 ! A298  A(45,48,49)           132.9516         calculate D2E/DX2 analytically  !
 ! A299  A(45,48,50)           101.8974         calculate D2E/DX2 analytically  !
 ! A300  A(46,48,49)            82.3558         calculate D2E/DX2 analytically  !
 ! A301  A(46,48,50)           120.1121         calculate D2E/DX2 analytically  !
 ! A302  A(49,48,50)           103.3179         calculate D2E/DX2 analytically  !
 ! A303  A(14,51,22)            87.7378         calculate D2E/DX2 analytically  !
 ! A304  A(14,51,52)            88.4842         calculate D2E/DX2 analytically  !
 ! A305  A(14,51,60)           117.4918         calculate D2E/DX2 analytically  !
 ! A306  A(14,51,63)           150.9675         calculate D2E/DX2 analytically  !
 ! A307  A(22,51,52)           135.1546         calculate D2E/DX2 analytically  !
 ! A308  A(22,51,54)           139.8949         calculate D2E/DX2 analytically  !
 ! A309  A(22,51,60)            99.4096         calculate D2E/DX2 analytically  !
 ! A310  A(22,51,63)            76.1846         calculate D2E/DX2 analytically  !
 ! A311  A(52,51,60)           121.6118         calculate D2E/DX2 analytically  !
 ! A312  A(52,51,63)            86.3098         calculate D2E/DX2 analytically  !
 ! A313  A(54,51,60)           102.4799         calculate D2E/DX2 analytically  !
 ! A314  A(54,51,63)           136.7116         calculate D2E/DX2 analytically  !
 ! A315  A(60,51,63)            89.2525         calculate D2E/DX2 analytically  !
 ! A316  A(12,52,51)            82.2814         calculate D2E/DX2 analytically  !
 ! A317  A(12,54,51)            63.617          calculate D2E/DX2 analytically  !
 ! A318  A(12,54,53)           145.8435         calculate D2E/DX2 analytically  !
 ! A319  A(12,54,55)            94.3916         calculate D2E/DX2 analytically  !
 ! A320  A(12,54,56)            93.6669         calculate D2E/DX2 analytically  !
 ! A321  A(12,54,57)           121.4292         calculate D2E/DX2 analytically  !
 ! A322  A(14,54,52)            85.7369         calculate D2E/DX2 analytically  !
 ! A323  A(14,54,53)           105.2009         calculate D2E/DX2 analytically  !
 ! A324  A(14,54,55)           144.621          calculate D2E/DX2 analytically  !
 ! A325  A(14,54,56)            84.3311         calculate D2E/DX2 analytically  !
 ! A326  A(14,54,57)           133.2016         calculate D2E/DX2 analytically  !
 ! A327  A(51,54,53)            82.2293         calculate D2E/DX2 analytically  !
 ! A328  A(51,54,55)           132.4317         calculate D2E/DX2 analytically  !
 ! A329  A(51,54,56)           134.4319         calculate D2E/DX2 analytically  !
 ! A330  A(52,54,53)           106.2054         calculate D2E/DX2 analytically  !
 ! A331  A(52,54,55)            82.3271         calculate D2E/DX2 analytically  !
 ! A332  A(52,54,56)           142.5204         calculate D2E/DX2 analytically  !
 ! A333  A(52,54,57)           130.5511         calculate D2E/DX2 analytically  !
 ! A334  A(53,54,55)           110.0952         calculate D2E/DX2 analytically  !
 ! A335  A(53,54,56)           111.273          calculate D2E/DX2 analytically  !
 ! A336  A(53,54,57)            92.7248         calculate D2E/DX2 analytically  !
 ! A337  A(55,54,56)            85.2104         calculate D2E/DX2 analytically  !
 ! A338  A(27,55,54)            76.9898         calculate D2E/DX2 analytically  !
 ! A339  A(27,55,57)            79.2423         calculate D2E/DX2 analytically  !
 ! A340  A(27,56,54)            78.3423         calculate D2E/DX2 analytically  !
 ! A341  A(27,56,57)            80.1551         calculate D2E/DX2 analytically  !
 ! A342  A(31,57,54)           157.9243         calculate D2E/DX2 analytically  !
 ! A343  A(31,57,55)           109.0946         calculate D2E/DX2 analytically  !
 ! A344  A(31,57,56)           122.8268         calculate D2E/DX2 analytically  !
 ! A345  A(31,57,58)           106.397          calculate D2E/DX2 analytically  !
 ! A346  A(54,57,58)            93.9991         calculate D2E/DX2 analytically  !
 ! A347  A(55,57,56)            92.7319         calculate D2E/DX2 analytically  !
 ! A348  A(55,57,58)           113.0826         calculate D2E/DX2 analytically  !
 ! A349  A(56,57,58)           112.2343         calculate D2E/DX2 analytically  !
 ! A350  A(18,62,39)            87.8151         calculate D2E/DX2 analytically  !
 ! A351  A(51,63,64)            70.057          calculate D2E/DX2 analytically  !
 ! A352  A(51,63,65)           103.217          calculate D2E/DX2 analytically  !
 ! A353  A(64,63,65)            97.0501         calculate D2E/DX2 analytically  !
 ! A354  A(22,64,63)           139.542          calculate D2E/DX2 analytically  !
 ! A355  L(51,54,57,12,-1)     185.0462         calculate D2E/DX2 analytically  !
 ! A356  L(51,54,57,12,-2)     181.5704         calculate D2E/DX2 analytically  !
 ! D1    D(3,1,2,12)           179.7816         calculate D2E/DX2 analytically  !
 ! D2    D(3,1,2,21)            94.7699         calculate D2E/DX2 analytically  !
 ! D3    D(4,1,2,12)           -28.2714         calculate D2E/DX2 analytically  !
 ! D4    D(4,1,2,21)          -113.2832         calculate D2E/DX2 analytically  !
 ! D5    D(5,1,2,12)            41.6152         calculate D2E/DX2 analytically  !
 ! D6    D(5,1,2,21)           -43.3966         calculate D2E/DX2 analytically  !
 ! D7    D(8,1,2,12)           -98.6368         calculate D2E/DX2 analytically  !
 ! D8    D(8,1,2,21)           176.3515         calculate D2E/DX2 analytically  !
 ! D9    D(46,1,2,12)          109.5079         calculate D2E/DX2 analytically  !
 ! D10   D(46,1,2,21)           24.4961         calculate D2E/DX2 analytically  !
 ! D11   D(2,1,3,45)          -174.8106         calculate D2E/DX2 analytically  !
 ! D12   D(2,1,3,48)           -95.8466         calculate D2E/DX2 analytically  !
 ! D13   D(4,1,3,45)            33.082          calculate D2E/DX2 analytically  !
 ! D14   D(4,1,3,48)           112.0459         calculate D2E/DX2 analytically  !
 ! D15   D(5,1,3,45)          -107.3071         calculate D2E/DX2 analytically  !
 ! D16   D(5,1,3,48)           -28.3432         calculate D2E/DX2 analytically  !
 ! D17   D(8,1,3,45)           101.9887         calculate D2E/DX2 analytically  !
 ! D18   D(8,1,3,48)          -179.0474         calculate D2E/DX2 analytically  !
 ! D19   D(46,1,3,45)          -38.5529         calculate D2E/DX2 analytically  !
 ! D20   D(46,1,3,48)           40.411          calculate D2E/DX2 analytically  !
 ! D21   D(2,1,4,6)           -111.4164         calculate D2E/DX2 analytically  !
 ! D22   D(2,1,4,9)            -28.1531         calculate D2E/DX2 analytically  !
 ! D23   D(3,1,4,6)             27.22           calculate D2E/DX2 analytically  !
 ! D24   D(3,1,4,9)            110.4833         calculate D2E/DX2 analytically  !
 ! D25   D(5,1,4,6)           -179.9117         calculate D2E/DX2 analytically  !
 ! D26   D(5,1,4,9)            -96.6484         calculate D2E/DX2 analytically  !
 ! D27   D(8,1,4,6)            -41.0947         calculate D2E/DX2 analytically  !
 ! D28   D(8,1,4,9)             42.1686         calculate D2E/DX2 analytically  !
 ! D29   D(46,1,4,6)            97.9948         calculate D2E/DX2 analytically  !
 ! D30   D(46,1,4,9)          -178.7419         calculate D2E/DX2 analytically  !
 ! D31   D(2,1,5,12)           -41.8408         calculate D2E/DX2 analytically  !
 ! D32   D(2,1,5,21)            42.5176         calculate D2E/DX2 analytically  !
 ! D33   D(3,1,5,12)          -110.2733         calculate D2E/DX2 analytically  !
 ! D34   D(3,1,5,21)           -25.9149         calculate D2E/DX2 analytically  !
 ! D35   D(4,1,5,12)            96.6325         calculate D2E/DX2 analytically  !
 ! D36   D(4,1,5,21)          -179.0091         calculate D2E/DX2 analytically  !
 ! D37   D(8,1,5,12)            25.1579         calculate D2E/DX2 analytically  !
 ! D38   D(8,1,5,21)           109.5163         calculate D2E/DX2 analytically  !
 ! D39   D(46,1,5,12)         -178.9753         calculate D2E/DX2 analytically  !
 ! D40   D(46,1,5,21)          -94.617          calculate D2E/DX2 analytically  !
 ! D41   D(2,1,8,6)            179.218          calculate D2E/DX2 analytically  !
 ! D42   D(2,1,8,9)             96.1843         calculate D2E/DX2 analytically  !
 ! D43   D(3,1,8,6)            -97.3387         calculate D2E/DX2 analytically  !
 ! D44   D(3,1,8,9)            179.6276         calculate D2E/DX2 analytically  !
 ! D45   D(4,1,8,6)             41.0463         calculate D2E/DX2 analytically  !
 ! D46   D(4,1,8,9)            -41.9875         calculate D2E/DX2 analytically  !
 ! D47   D(5,1,8,6)            113.0224         calculate D2E/DX2 analytically  !
 ! D48   D(5,1,8,9)             29.9886         calculate D2E/DX2 analytically  !
 ! D49   D(46,1,8,6)           -30.7915         calculate D2E/DX2 analytically  !
 ! D50   D(46,1,8,9)          -113.8252         calculate D2E/DX2 analytically  !
 ! D51   D(2,1,46,45)          109.1582         calculate D2E/DX2 analytically  !
 ! D52   D(2,1,46,48)           30.264          calculate D2E/DX2 analytically  !
 ! D53   D(3,1,46,45)           38.4872         calculate D2E/DX2 analytically  !
 ! D54   D(3,1,46,48)          -40.4071         calculate D2E/DX2 analytically  !
 ! D55   D(4,1,46,45)          -99.1654         calculate D2E/DX2 analytically  !
 ! D56   D(4,1,46,48)         -178.0596         calculate D2E/DX2 analytically  !
 ! D57   D(5,1,46,45)          176.4319         calculate D2E/DX2 analytically  !
 ! D58   D(5,1,46,48)           97.5377         calculate D2E/DX2 analytically  !
 ! D59   D(8,1,46,45)          -27.8221         calculate D2E/DX2 analytically  !
 ! D60   D(8,1,46,48)         -106.7164         calculate D2E/DX2 analytically  !
 ! D61   D(1,2,12,5)           -41.6248         calculate D2E/DX2 analytically  !
 ! D62   D(1,2,12,11)           28.8562         calculate D2E/DX2 analytically  !
 ! D63   D(1,2,12,14)         -177.5761         calculate D2E/DX2 analytically  !
 ! D64   D(1,2,12,15)           96.8107         calculate D2E/DX2 analytically  !
 ! D65   D(1,2,12,52)         -109.9867         calculate D2E/DX2 analytically  !
 ! D66   D(1,2,12,54)         -179.3262         calculate D2E/DX2 analytically  !
 ! D67   D(21,2,12,5)           40.948          calculate D2E/DX2 analytically  !
 ! D68   D(21,2,12,11)         111.4291         calculate D2E/DX2 analytically  !
 ! D69   D(21,2,12,14)         -95.0032         calculate D2E/DX2 analytically  !
 ! D70   D(21,2,12,15)         179.3836         calculate D2E/DX2 analytically  !
 ! D71   D(21,2,12,52)         -27.4138         calculate D2E/DX2 analytically  !
 ! D72   D(21,2,12,54)         -96.7533         calculate D2E/DX2 analytically  !
 ! D73   D(1,2,21,5)            43.0221         calculate D2E/DX2 analytically  !
 ! D74   D(1,2,21,22)          176.1817         calculate D2E/DX2 analytically  !
 ! D75   D(1,2,21,23)          -98.0843         calculate D2E/DX2 analytically  !
 ! D76   D(1,2,21,48)          -48.2034         calculate D2E/DX2 analytically  !
 ! D77   D(1,2,21,49)          -26.9204         calculate D2E/DX2 analytically  !
 ! D78   D(12,2,21,5)          -40.5949         calculate D2E/DX2 analytically  !
 ! D79   D(12,2,21,22)          92.5647         calculate D2E/DX2 analytically  !
 ! D80   D(12,2,21,23)         178.2987         calculate D2E/DX2 analytically  !
 ! D81   D(12,2,21,48)        -131.8204         calculate D2E/DX2 analytically  !
 ! D82   D(12,2,21,49)        -110.5374         calculate D2E/DX2 analytically  !
 ! D83   D(1,3,45,43)          -98.2794         calculate D2E/DX2 analytically  !
 ! D84   D(1,3,45,44)          -34.6152         calculate D2E/DX2 analytically  !
 ! D85   D(1,3,45,46)           41.2263         calculate D2E/DX2 analytically  !
 ! D86   D(1,3,45,47)          157.3382         calculate D2E/DX2 analytically  !
 ! D87   D(1,3,48,21)           49.0045         calculate D2E/DX2 analytically  !
 ! D88   D(1,3,48,23)           95.8962         calculate D2E/DX2 analytically  !
 ! D89   D(1,3,48,46)          -42.3658         calculate D2E/DX2 analytically  !
 ! D90   D(1,3,48,49)           32.1697         calculate D2E/DX2 analytically  !
 ! D91   D(1,3,48,50)         -164.6364         calculate D2E/DX2 analytically  !
 ! D92   D(1,4,6,7)            178.4438         calculate D2E/DX2 analytically  !
 ! D93   D(1,4,6,8)             40.9109         calculate D2E/DX2 analytically  !
 ! D94   D(1,4,6,16)           107.8967         calculate D2E/DX2 analytically  !
 ! D95   D(1,4,6,43)           -37.5141         calculate D2E/DX2 analytically  !
 ! D96   D(1,4,6,44)           -95.3377         calculate D2E/DX2 analytically  !
 ! D97   D(9,4,6,7)             95.9761         calculate D2E/DX2 analytically  !
 ! D98   D(9,4,6,8)            -41.5568         calculate D2E/DX2 analytically  !
 ! D99   D(9,4,6,16)            25.4291         calculate D2E/DX2 analytically  !
 ! D100  D(9,4,6,43)          -119.9817         calculate D2E/DX2 analytically  !
 ! D101  D(9,4,6,44)          -177.8054         calculate D2E/DX2 analytically  !
 ! D102  D(1,4,9,8)            -41.4318         calculate D2E/DX2 analytically  !
 ! D103  D(1,4,9,10)          -178.6031         calculate D2E/DX2 analytically  !
 ! D104  D(1,4,9,11)            96.6283         calculate D2E/DX2 analytically  !
 ! D105  D(1,4,9,15)            28.7676         calculate D2E/DX2 analytically  !
 ! D106  D(1,4,9,26)          -110.3484         calculate D2E/DX2 analytically  !
 ! D107  D(6,4,9,8)             41.0188         calculate D2E/DX2 analytically  !
 ! D108  D(6,4,9,10)           -96.1525         calculate D2E/DX2 analytically  !
 ! D109  D(6,4,9,11)           179.0789         calculate D2E/DX2 analytically  !
 ! D110  D(6,4,9,15)           111.2181         calculate D2E/DX2 analytically  !
 ! D111  D(6,4,9,26)           -27.8979         calculate D2E/DX2 analytically  !
 ! D112  D(1,5,12,2)            41.9914         calculate D2E/DX2 analytically  !
 ! D113  D(1,5,12,11)          -95.2188         calculate D2E/DX2 analytically  !
 ! D114  D(1,5,12,14)          109.3075         calculate D2E/DX2 analytically  !
 ! D115  D(1,5,12,15)          -24.4686         calculate D2E/DX2 analytically  !
 ! D116  D(1,5,12,52)         -179.4824         calculate D2E/DX2 analytically  !
 ! D117  D(1,5,12,54)          178.3885         calculate D2E/DX2 analytically  !
 ! D118  D(21,5,12,2)          -40.142          calculate D2E/DX2 analytically  !
 ! D119  D(21,5,12,11)        -177.3521         calculate D2E/DX2 analytically  !
 ! D120  D(21,5,12,14)          27.1741         calculate D2E/DX2 analytically  !
 ! D121  D(21,5,12,15)        -106.6019         calculate D2E/DX2 analytically  !
 ! D122  D(21,5,12,52)          98.3842         calculate D2E/DX2 analytically  !
 ! D123  D(21,5,12,54)          96.2551         calculate D2E/DX2 analytically  !
 ! D124  D(1,5,21,2)           -43.5498         calculate D2E/DX2 analytically  !
 ! D125  D(1,5,21,22)         -130.9982         calculate D2E/DX2 analytically  !
 ! D126  D(1,5,21,23)           23.6762         calculate D2E/DX2 analytically  !
 ! D127  D(1,5,21,48)           48.2632         calculate D2E/DX2 analytically  !
 ! D128  D(1,5,21,49)           98.6635         calculate D2E/DX2 analytically  !
 ! D129  D(12,5,21,2)           40.9442         calculate D2E/DX2 analytically  !
 ! D130  D(12,5,21,22)         -46.5043         calculate D2E/DX2 analytically  !
 ! D131  D(12,5,21,23)         108.1702         calculate D2E/DX2 analytically  !
 ! D132  D(12,5,21,48)         132.7572         calculate D2E/DX2 analytically  !
 ! D133  D(12,5,21,49)        -176.8426         calculate D2E/DX2 analytically  !
 ! D134  D(4,6,7,13)           -96.7305         calculate D2E/DX2 analytically  !
 ! D135  D(4,6,7,18)          -179.6749         calculate D2E/DX2 analytically  !
 ! D136  D(8,6,7,13)           -24.1839         calculate D2E/DX2 analytically  !
 ! D137  D(8,6,7,18)          -107.1283         calculate D2E/DX2 analytically  !
 ! D138  D(16,6,7,13)           41.218          calculate D2E/DX2 analytically  !
 ! D139  D(16,6,7,18)          -41.7264         calculate D2E/DX2 analytically  !
 ! D140  D(43,6,7,13)          114.9931         calculate D2E/DX2 analytically  !
 ! D141  D(43,6,7,18)           32.0487         calculate D2E/DX2 analytically  !
 ! D142  D(44,6,7,13)         -178.6615         calculate D2E/DX2 analytically  !
 ! D143  D(44,6,7,18)           98.3941         calculate D2E/DX2 analytically  !
 ! D144  D(4,6,8,1)            -41.2622         calculate D2E/DX2 analytically  !
 ! D145  D(4,6,8,9)             41.4295         calculate D2E/DX2 analytically  !
 ! D146  D(7,6,8,1)           -114.495          calculate D2E/DX2 analytically  !
 ! D147  D(7,6,8,9)            -31.8033         calculate D2E/DX2 analytically  !
 ! D148  D(16,6,8,1)           179.7184         calculate D2E/DX2 analytically  !
 ! D149  D(16,6,8,9)           -97.5898         calculate D2E/DX2 analytically  !
 ! D150  D(43,6,8,1)            95.9285         calculate D2E/DX2 analytically  !
 ! D151  D(43,6,8,9)           178.6203         calculate D2E/DX2 analytically  !
 ! D152  D(44,6,8,1)            29.218          calculate D2E/DX2 analytically  !
 ! D153  D(44,6,8,9)           111.9098         calculate D2E/DX2 analytically  !
 ! D154  D(4,6,16,13)           30.5776         calculate D2E/DX2 analytically  !
 ! D155  D(4,6,16,18)          115.5402         calculate D2E/DX2 analytically  !
 ! D156  D(7,6,16,13)          -41.1689         calculate D2E/DX2 analytically  !
 ! D157  D(7,6,16,18)           43.7936         calculate D2E/DX2 analytically  !
 ! D158  D(8,6,16,13)           98.4608         calculate D2E/DX2 analytically  !
 ! D159  D(8,6,16,18)         -176.5767         calculate D2E/DX2 analytically  !
 ! D160  D(43,6,16,13)        -172.7521         calculate D2E/DX2 analytically  !
 ! D161  D(43,6,16,18)         -87.7896         calculate D2E/DX2 analytically  !
 ! D162  D(44,6,16,13)        -113.7869         calculate D2E/DX2 analytically  !
 ! D163  D(44,6,16,18)         -28.8244         calculate D2E/DX2 analytically  !
 ! D164  D(4,6,43,42)         -104.8692         calculate D2E/DX2 analytically  !
 ! D165  D(4,6,43,45)          -13.8537         calculate D2E/DX2 analytically  !
 ! D166  D(7,6,43,42)           26.1476         calculate D2E/DX2 analytically  !
 ! D167  D(7,6,43,45)          117.1632         calculate D2E/DX2 analytically  !
 ! D168  D(8,6,43,42)          178.8359         calculate D2E/DX2 analytically  !
 ! D169  D(8,6,43,45)          -90.1485         calculate D2E/DX2 analytically  !
 ! D170  D(16,6,43,42)          98.7582         calculate D2E/DX2 analytically  !
 ! D171  D(16,6,43,45)        -170.2262         calculate D2E/DX2 analytically  !
 ! D172  D(44,6,43,42)         -44.7969         calculate D2E/DX2 analytically  !
 ! D173  D(44,6,43,45)          46.2187         calculate D2E/DX2 analytically  !
 ! D174  D(4,6,44,42)         -170.1777         calculate D2E/DX2 analytically  !
 ! D175  D(4,6,44,45)           96.1758         calculate D2E/DX2 analytically  !
 ! D176  D(7,6,44,42)          -85.5642         calculate D2E/DX2 analytically  !
 ! D177  D(7,6,44,45)         -179.2107         calculate D2E/DX2 analytically  !
 ! D178  D(8,6,44,42)          119.0427         calculate D2E/DX2 analytically  !
 ! D179  D(8,6,44,45)           25.3962         calculate D2E/DX2 analytically  !
 ! D180  D(16,6,44,42)         -14.5833         calculate D2E/DX2 analytically  !
 ! D181  D(16,6,44,45)        -108.2299         calculate D2E/DX2 analytically  !
 ! D182  D(43,6,44,42)          47.2182         calculate D2E/DX2 analytically  !
 ! D183  D(43,6,44,45)         -46.4283         calculate D2E/DX2 analytically  !
 ! D184  D(6,7,13,10)           95.7711         calculate D2E/DX2 analytically  !
 ! D185  D(6,7,13,16)          -40.9867         calculate D2E/DX2 analytically  !
 ! D186  D(6,7,13,26)           26.9167         calculate D2E/DX2 analytically  !
 ! D187  D(6,7,13,37)         -176.858          calculate D2E/DX2 analytically  !
 ! D188  D(6,7,13,38)         -112.9961         calculate D2E/DX2 analytically  !
 ! D189  D(18,7,13,10)         177.5607         calculate D2E/DX2 analytically  !
 ! D190  D(18,7,13,16)          40.8029         calculate D2E/DX2 analytically  !
 ! D191  D(18,7,13,26)         108.7063         calculate D2E/DX2 analytically  !
 ! D192  D(18,7,13,37)         -95.0684         calculate D2E/DX2 analytically  !
 ! D193  D(18,7,13,38)         -31.2065         calculate D2E/DX2 analytically  !
 ! D194  D(6,7,18,16)           42.3504         calculate D2E/DX2 analytically  !
 ! D195  D(6,7,18,19)         -100.916          calculate D2E/DX2 analytically  !
 ! D196  D(6,7,18,20)          -36.464          calculate D2E/DX2 analytically  !
 ! D197  D(6,7,18,40)          175.9022         calculate D2E/DX2 analytically  !
 ! D198  D(6,7,18,42)          -55.9926         calculate D2E/DX2 analytically  !
 ! D199  D(6,7,18,62)          132.2472         calculate D2E/DX2 analytically  !
 ! D200  D(13,7,18,16)         -41.6416         calculate D2E/DX2 analytically  !
 ! D201  D(13,7,18,19)         175.092          calculate D2E/DX2 analytically  !
 ! D202  D(13,7,18,20)        -120.4561         calculate D2E/DX2 analytically  !
 ! D203  D(13,7,18,40)          91.9101         calculate D2E/DX2 analytically  !
 ! D204  D(13,7,18,42)        -139.9846         calculate D2E/DX2 analytically  !
 ! D205  D(13,7,18,62)          48.2552         calculate D2E/DX2 analytically  !
 ! D206  D(1,8,9,4)             41.8095         calculate D2E/DX2 analytically  !
 ! D207  D(1,8,9,10)           112.1631         calculate D2E/DX2 analytically  !
 ! D208  D(1,8,9,11)           -28.2974         calculate D2E/DX2 analytically  !
 ! D209  D(1,8,9,15)           -95.9598         calculate D2E/DX2 analytically  !
 ! D210  D(1,8,9,26)          -179.4828         calculate D2E/DX2 analytically  !
 ! D211  D(6,8,9,4)            -41.0391         calculate D2E/DX2 analytically  !
 ! D212  D(6,8,9,10)            29.3145         calculate D2E/DX2 analytically  !
 ! D213  D(6,8,9,11)          -111.146          calculate D2E/DX2 analytically  !
 ! D214  D(6,8,9,15)          -178.8083         calculate D2E/DX2 analytically  !
 ! D215  D(6,8,9,26)            97.6686         calculate D2E/DX2 analytically  !
 ! D216  D(4,9,10,13)           97.4718         calculate D2E/DX2 analytically  !
 ! D217  D(4,9,10,24)         -179.0635         calculate D2E/DX2 analytically  !
 ! D218  D(8,9,10,13)           27.7396         calculate D2E/DX2 analytically  !
 ! D219  D(8,9,10,24)          111.2042         calculate D2E/DX2 analytically  !
 ! D220  D(11,9,10,13)        -179.0934         calculate D2E/DX2 analytically  !
 ! D221  D(11,9,10,24)         -95.6288         calculate D2E/DX2 analytically  !
 ! D222  D(15,9,10,13)        -110.2961         calculate D2E/DX2 analytically  !
 ! D223  D(15,9,10,24)         -26.8314         calculate D2E/DX2 analytically  !
 ! D224  D(26,9,10,13)         -41.247          calculate D2E/DX2 analytically  !
 ! D225  D(26,9,10,24)          42.2177         calculate D2E/DX2 analytically  !
 ! D226  D(4,9,11,12)          -97.1474         calculate D2E/DX2 analytically  !
 ! D227  D(4,9,11,27)         -179.4106         calculate D2E/DX2 analytically  !
 ! D228  D(8,9,11,12)          -27.7022         calculate D2E/DX2 analytically  !
 ! D229  D(8,9,11,27)         -109.9654         calculate D2E/DX2 analytically  !
 ! D230  D(10,9,11,12)         179.5737         calculate D2E/DX2 analytically  !
 ! D231  D(10,9,11,27)          97.3105         calculate D2E/DX2 analytically  !
 ! D232  D(15,9,11,12)          41.0403         calculate D2E/DX2 analytically  !
 ! D233  D(15,9,11,27)         -41.2228         calculate D2E/DX2 analytically  !
 ! D234  D(26,9,11,12)         109.6555         calculate D2E/DX2 analytically  !
 ! D235  D(26,9,11,27)          27.3923         calculate D2E/DX2 analytically  !
 ! D236  D(4,9,15,12)           27.7829         calculate D2E/DX2 analytically  !
 ! D237  D(4,9,15,27)          110.177          calculate D2E/DX2 analytically  !
 ! D238  D(8,9,15,12)           97.3304         calculate D2E/DX2 analytically  !
 ! D239  D(8,9,15,27)          179.7245         calculate D2E/DX2 analytically  !
 ! D240  D(10,9,15,12)        -111.5219         calculate D2E/DX2 analytically  !
 ! D241  D(10,9,15,27)         -29.1278         calculate D2E/DX2 analytically  !
 ! D242  D(11,9,15,12)         -41.182          calculate D2E/DX2 analytically  !
 ! D243  D(11,9,15,27)          41.2121         calculate D2E/DX2 analytically  !
 ! D244  D(26,9,15,12)        -179.7546         calculate D2E/DX2 analytically  !
 ! D245  D(26,9,15,27)         -97.3605         calculate D2E/DX2 analytically  !
 ! D246  D(4,9,26,13)          -27.3962         calculate D2E/DX2 analytically  !
 ! D247  D(4,9,26,24)         -111.3743         calculate D2E/DX2 analytically  !
 ! D248  D(8,9,26,13)          -95.9091         calculate D2E/DX2 analytically  !
 ! D249  D(8,9,26,24)         -179.8872         calculate D2E/DX2 analytically  !
 ! D250  D(10,9,26,13)          41.6655         calculate D2E/DX2 analytically  !
 ! D251  D(10,9,26,24)         -42.3127         calculate D2E/DX2 analytically  !
 ! D252  D(11,9,26,13)         112.9208         calculate D2E/DX2 analytically  !
 ! D253  D(11,9,26,24)          28.9427         calculate D2E/DX2 analytically  !
 ! D254  D(15,9,26,13)        -179.5149         calculate D2E/DX2 analytically  !
 ! D255  D(15,9,26,24)          96.507          calculate D2E/DX2 analytically  !
 ! D256  D(9,10,13,7)          -96.8934         calculate D2E/DX2 analytically  !
 ! D257  D(9,10,13,16)         -27.8131         calculate D2E/DX2 analytically  !
 ! D258  D(9,10,13,26)          41.7232         calculate D2E/DX2 analytically  !
 ! D259  D(9,10,13,37)         178.849          calculate D2E/DX2 analytically  !
 ! D260  D(9,10,13,38)         110.9615         calculate D2E/DX2 analytically  !
 ! D261  D(24,10,13,7)        -179.2119         calculate D2E/DX2 analytically  !
 ! D262  D(24,10,13,16)       -110.1316         calculate D2E/DX2 analytically  !
 ! D263  D(24,10,13,26)        -40.5953         calculate D2E/DX2 analytically  !
 ! D264  D(24,10,13,37)         96.5305         calculate D2E/DX2 analytically  !
 ! D265  D(24,10,13,38)         28.643          calculate D2E/DX2 analytically  !
 ! D266  D(9,10,24,17)        -120.5005         calculate D2E/DX2 analytically  !
 ! D267  D(9,10,24,25)        -178.3539         calculate D2E/DX2 analytically  !
 ! D268  D(9,10,24,26)         -42.6929         calculate D2E/DX2 analytically  !
 ! D269  D(9,10,24,28)          95.1001         calculate D2E/DX2 analytically  !
 ! D270  D(9,10,24,29)          25.1906         calculate D2E/DX2 analytically  !
 ! D271  D(13,10,24,17)        -37.2286         calculate D2E/DX2 analytically  !
 ! D272  D(13,10,24,25)        -95.0821         calculate D2E/DX2 analytically  !
 ! D273  D(13,10,24,26)         40.579          calculate D2E/DX2 analytically  !
 ! D274  D(13,10,24,28)        178.372          calculate D2E/DX2 analytically  !
 ! D275  D(13,10,24,29)        108.4625         calculate D2E/DX2 analytically  !
 ! D276  D(9,11,12,2)           26.1698         calculate D2E/DX2 analytically  !
 ! D277  D(9,11,12,5)           95.3718         calculate D2E/DX2 analytically  !
 ! D278  D(9,11,12,14)        -112.3613         calculate D2E/DX2 analytically  !
 ! D279  D(9,11,12,15)         -41.6017         calculate D2E/DX2 analytically  !
 ! D280  D(9,11,12,52)         178.2868         calculate D2E/DX2 analytically  !
 ! D281  D(9,11,12,54)        -132.6867         calculate D2E/DX2 analytically  !
 ! D282  D(27,11,12,2)         110.4098         calculate D2E/DX2 analytically  !
 ! D283  D(27,11,12,5)         179.6118         calculate D2E/DX2 analytically  !
 ! D284  D(27,11,12,14)        -28.1213         calculate D2E/DX2 analytically  !
 ! D285  D(27,11,12,15)         42.6383         calculate D2E/DX2 analytically  !
 ! D286  D(27,11,12,52)        -97.4732         calculate D2E/DX2 analytically  !
 ! D287  D(27,11,12,54)        -48.4467         calculate D2E/DX2 analytically  !
 ! D288  D(9,11,27,15)          41.5091         calculate D2E/DX2 analytically  !
 ! D289  D(9,11,27,28)         -95.9283         calculate D2E/DX2 analytically  !
 ! D290  D(9,11,27,29)         -25.1843         calculate D2E/DX2 analytically  !
 ! D291  D(9,11,27,30)         -92.9544         calculate D2E/DX2 analytically  !
 ! D292  D(9,11,27,55)         179.6114         calculate D2E/DX2 analytically  !
 ! D293  D(9,11,27,56)         111.4963         calculate D2E/DX2 analytically  !
 ! D294  D(12,11,27,15)        -42.3512         calculate D2E/DX2 analytically  !
 ! D295  D(12,11,27,28)       -179.7886         calculate D2E/DX2 analytically  !
 ! D296  D(12,11,27,29)       -109.0447         calculate D2E/DX2 analytically  !
 ! D297  D(12,11,27,30)       -176.8148         calculate D2E/DX2 analytically  !
 ! D298  D(12,11,27,55)         95.7511         calculate D2E/DX2 analytically  !
 ! D299  D(12,11,27,56)         27.636          calculate D2E/DX2 analytically  !
 ! D300  D(2,12,14,51)         102.9116         calculate D2E/DX2 analytically  !
 ! D301  D(5,12,14,51)          35.6966         calculate D2E/DX2 analytically  !
 ! D302  D(11,12,14,51)       -105.8293         calculate D2E/DX2 analytically  !
 ! D303  D(15,12,14,51)       -175.5282         calculate D2E/DX2 analytically  !
 ! D304  D(52,12,14,51)        -35.8036         calculate D2E/DX2 analytically  !
 ! D305  D(2,12,15,9)          -96.2116         calculate D2E/DX2 analytically  !
 ! D306  D(2,12,15,27)         179.5685         calculate D2E/DX2 analytically  !
 ! D307  D(5,12,15,9)          -29.9908         calculate D2E/DX2 analytically  !
 ! D308  D(5,12,15,27)        -114.2107         calculate D2E/DX2 analytically  !
 ! D309  D(11,12,15,9)          41.6109         calculate D2E/DX2 analytically  !
 ! D310  D(11,12,15,27)        -42.609          calculate D2E/DX2 analytically  !
 ! D311  D(14,12,15,9)        -177.3611         calculate D2E/DX2 analytically  !
 ! D312  D(14,12,15,27)         98.419          calculate D2E/DX2 analytically  !
 ! D313  D(52,12,15,9)         111.8277         calculate D2E/DX2 analytically  !
 ! D314  D(52,12,15,27)         27.6078         calculate D2E/DX2 analytically  !
 ! D315  D(54,12,15,9)         133.1845         calculate D2E/DX2 analytically  !
 ! D316  D(54,12,15,27)         48.9646         calculate D2E/DX2 analytically  !
 ! D317  D(2,12,52,51)         -31.4632         calculate D2E/DX2 analytically  !
 ! D318  D(5,12,52,51)         -99.0098         calculate D2E/DX2 analytically  !
 ! D319  D(11,12,52,51)        176.8461         calculate D2E/DX2 analytically  !
 ! D320  D(14,12,52,51)         35.6708         calculate D2E/DX2 analytically  !
 ! D321  D(15,12,52,51)        107.4515         calculate D2E/DX2 analytically  !
 ! D322  D(2,12,54,51)          60.9111         calculate D2E/DX2 analytically  !
 ! D323  D(2,12,54,53)          60.111          calculate D2E/DX2 analytically  !
 ! D324  D(2,12,54,55)        -163.2585         calculate D2E/DX2 analytically  !
 ! D325  D(2,12,54,56)         -77.7892         calculate D2E/DX2 analytically  !
 ! D326  D(2,12,54,57)        -120.6593         calculate D2E/DX2 analytically  !
 ! D327  D(5,12,54,51)         -56.2151         calculate D2E/DX2 analytically  !
 ! D328  D(5,12,54,53)         -57.0152         calculate D2E/DX2 analytically  !
 ! D329  D(5,12,54,55)          79.6152         calculate D2E/DX2 analytically  !
 ! D330  D(5,12,54,56)         165.0846         calculate D2E/DX2 analytically  !
 ! D331  D(5,12,54,57)         122.2145         calculate D2E/DX2 analytically  !
 ! D332  D(11,12,54,51)       -138.8595         calculate D2E/DX2 analytically  !
 ! D333  D(11,12,54,53)       -139.6596         calculate D2E/DX2 analytically  !
 ! D334  D(11,12,54,55)         -3.0292         calculate D2E/DX2 analytically  !
 ! D335  D(11,12,54,56)         82.4402         calculate D2E/DX2 analytically  !
 ! D336  D(11,12,54,57)         39.5701         calculate D2E/DX2 analytically  !
 ! D337  D(15,12,54,51)        139.8969         calculate D2E/DX2 analytically  !
 ! D338  D(15,12,54,53)        139.0968         calculate D2E/DX2 analytically  !
 ! D339  D(15,12,54,55)        -84.2727         calculate D2E/DX2 analytically  !
 ! D340  D(15,12,54,56)          1.1966         calculate D2E/DX2 analytically  !
 ! D341  D(15,12,54,57)        -41.6734         calculate D2E/DX2 analytically  !
 ! D342  D(7,13,16,6)           41.2453         calculate D2E/DX2 analytically  !
 ! D343  D(7,13,16,18)         -42.8703         calculate D2E/DX2 analytically  !
 ! D344  D(10,13,16,6)         -28.405          calculate D2E/DX2 analytically  !
 ! D345  D(10,13,16,18)       -112.5206         calculate D2E/DX2 analytically  !
 ! D346  D(26,13,16,6)         -97.7604         calculate D2E/DX2 analytically  !
 ! D347  D(26,13,16,18)        178.124          calculate D2E/DX2 analytically  !
 ! D348  D(37,13,16,6)         113.5416         calculate D2E/DX2 analytically  !
 ! D349  D(37,13,16,18)         29.426          calculate D2E/DX2 analytically  !
 ! D350  D(38,13,16,6)         179.7905         calculate D2E/DX2 analytically  !
 ! D351  D(38,13,16,18)         95.6749         calculate D2E/DX2 analytically  !
 ! D352  D(7,13,26,9)           27.4461         calculate D2E/DX2 analytically  !
 ! D353  D(7,13,26,24)         109.8456         calculate D2E/DX2 analytically  !
 ! D354  D(10,13,26,9)         -41.7537         calculate D2E/DX2 analytically  !
 ! D355  D(10,13,26,24)         40.6459         calculate D2E/DX2 analytically  !
 ! D356  D(16,13,26,9)          94.9833         calculate D2E/DX2 analytically  !
 ! D357  D(16,13,26,24)        177.3828         calculate D2E/DX2 analytically  !
 ! D358  D(37,13,26,9)        -117.6399         calculate D2E/DX2 analytically  !
 ! D359  D(37,13,26,24)        -35.2403         calculate D2E/DX2 analytically  !
 ! D360  D(38,13,26,9)        -179.3527         calculate D2E/DX2 analytically  !
 ! D361  D(38,13,26,24)        -96.9531         calculate D2E/DX2 analytically  !
 ! D362  D(7,13,37,36)        -177.3265         calculate D2E/DX2 analytically  !
 ! D363  D(7,13,37,39)         101.9673         calculate D2E/DX2 analytically  !
 ! D364  D(10,13,37,36)        -94.8851         calculate D2E/DX2 analytically  !
 ! D365  D(10,13,37,39)       -175.5913         calculate D2E/DX2 analytically  !
 ! D366  D(16,13,37,36)        111.6631         calculate D2E/DX2 analytically  !
 ! D367  D(16,13,37,39)         30.9568         calculate D2E/DX2 analytically  !
 ! D368  D(26,13,37,36)        -21.1088         calculate D2E/DX2 analytically  !
 ! D369  D(26,13,37,39)       -101.815          calculate D2E/DX2 analytically  !
 ! D370  D(38,13,37,36)         42.3631         calculate D2E/DX2 analytically  !
 ! D371  D(38,13,37,39)        -38.3432         calculate D2E/DX2 analytically  !
 ! D372  D(7,13,38,36)        -108.7299         calculate D2E/DX2 analytically  !
 ! D373  D(7,13,38,39)         -29.9532         calculate D2E/DX2 analytically  !
 ! D374  D(10,13,38,36)         29.3621         calculate D2E/DX2 analytically  !
 ! D375  D(10,13,38,39)        108.1389         calculate D2E/DX2 analytically  !
 ! D376  D(16,13,38,36)       -179.2683         calculate D2E/DX2 analytically  !
 ! D377  D(16,13,38,39)       -100.4916         calculate D2E/DX2 analytically  !
 ! D378  D(26,13,38,36)         98.3864         calculate D2E/DX2 analytically  !
 ! D379  D(26,13,38,39)        177.1631         calculate D2E/DX2 analytically  !
 ! D380  D(37,13,38,36)        -42.3344         calculate D2E/DX2 analytically  !
 ! D381  D(37,13,38,39)         36.4423         calculate D2E/DX2 analytically  !
 ! D382  D(12,14,51,22)        -97.3007         calculate D2E/DX2 analytically  !
 ! D383  D(12,14,51,52)         38.0041         calculate D2E/DX2 analytically  !
 ! D384  D(12,14,51,60)        163.2665         calculate D2E/DX2 analytically  !
 ! D385  D(12,14,51,63)        -41.6062         calculate D2E/DX2 analytically  !
 ! D386  D(9,15,27,11)         -41.5368         calculate D2E/DX2 analytically  !
 ! D387  D(9,15,27,28)          28.0597         calculate D2E/DX2 analytically  !
 ! D388  D(9,15,27,29)          95.3147         calculate D2E/DX2 analytically  !
 ! D389  D(9,15,27,30)          95.6025         calculate D2E/DX2 analytically  !
 ! D390  D(9,15,27,55)        -112.2232         calculate D2E/DX2 analytically  !
 ! D391  D(9,15,27,56)         179.459          calculate D2E/DX2 analytically  !
 ! D392  D(12,15,27,11)         42.5006         calculate D2E/DX2 analytically  !
 ! D393  D(12,15,27,28)        112.0971         calculate D2E/DX2 analytically  !
 ! D394  D(12,15,27,29)        179.3521         calculate D2E/DX2 analytically  !
 ! D395  D(12,15,27,30)        179.6399         calculate D2E/DX2 analytically  !
 ! D396  D(12,15,27,55)        -28.1858         calculate D2E/DX2 analytically  !
[...]
 00002698,0.00000083,0.00000562,0.00001814,0.00001474,-0.00004715,-0.00
 016952,0.00003230,0.00006145,0.00003304,0.00000886,-0.00001705,0.00004
 565,0.00005528,-0.00001522,0.00017077,-0.00016562,0.00000550,-0.000207
 59,0.00016187,-0.00014580,-0.00002965,0.00001672,-0.00001798,0.0001196
 5,0.00000583,-0.00007894,-0.00005322,0.00005384,0.00000455,0.00001211,
 -0.00003172,0.00004449,-0.00002149,0.00002181,-0.00003160,0.00001013,-
 0.00000970,0.00000423,0.00000667,-0.00000206,0.00001088,-0.00000998,0.
 00005547,-0.00007667,-0.00000322,-0.00001137,0.00003481,0.00003050,-0.
 00004539,0.00005260,-0.00026696,0.00005919,-0.00015365,0.00000253,-0.0
 0007622,0.00000004,0.00003094,0.00004339,0.00010202,0.00036584,-0.0001
 7853,0.00019769,-0.00013161,0.00013749,-0.00018217,0.00000030,0.000044
 77,-0.00006155,-0.00023177,-0.00046795,-0.00060724,0.00040778,0.002525
 91,-0.00043373,0.00016453,0.00004172,-0.00002646,-0.00869652,-0.037551
 26,0.00902224,0.00054634,-0.00055728,0.00428484,-0.00075716,-0.0001366
 1,0.00021115,0.00182031,0.00176006,-0.00336305,0.00003058,-0.00021460,
 0.00021838,-0.00008153,0.00009293,0.00007287,0.00020249,-0.00014928,0.
 00039428,-0.00018019,0.00003690,-0.00001444,-0.00000243,-0.00002649,0.
 00004126,-0.00528157,-0.00027319,-0.00115359,0.00007877,0.00002498,-0.
 00004596,-0.00000600,-0.00002189,0.00002036,-0.00266798,0.08818513,0.0
 0112381,-0.00051246,0.00091346,0.00023221,0.00011861,-0.00028675,-0.00
 038257,0.00011095,0.00006943,-0.00004194,0.00006902,0.00010849,0.00002
 645,0.00057304,0.00039807,-0.00001615,-0.00001578,0.00001702,-0.000002
 66,0.00001180,0.00000365,-0.00002961,0.00000809,-0.00012139,0.00001685
 ,0.00003853,0.00005019,-0.00000898,0.00000071,-0.00002781,0.00005420,-
 0.00000494,0.00013215,0.00016512,0.00094210,-0.00079287,-0.00000496,-0
 .00001820,0.00003766,-0.00273301,0.00227100,-0.00012584,-0.00009488,0.
 00012879,0.00000513,-0.00000560,-0.00000186,-0.00001421,0.00000168,-0.
 00000008,0.00000773,0.00001245,0.00000001,-0.00000984,0.00000608,-0.00
 000215,0.00004480,0.00000535,0.00000356,0.00000613,-0.00379184,-0.0034
 8144,-0.00344038,0.00317241,-0.05002344,-0.00880639,-0.00073182,-0.000
 31959,0.00013909,-0.00000917,-0.00001721,0.00003337,-0.00000708,-0.000
 00599,0.00000042,0.00001167,0.00000421,-0.00000347,-0.00010087,0.00018
 230,0.00003938,0.00000713,0.00000387,-0.00001150,0.00000310,-0.0000135
 8,-0.00000835,-0.00002076,0.00001195,0.00001844,0.00003407,-0.00004176
 ,0.00001683,0.00000444,-0.00000670,0.00000488,0.00002059,0.00000354,-0
 .00004002,0.00000049,0.00000987,0.00000433,0.00000280,-0.00001747,0.00
 002432,-0.00000330,0.00001725,-0.00002582,-0.00000046,-0.00000381,-0.0
 0000336,0.00000206,0.00000516,0.00000297,-0.00000971,0.00002657,-0.000
 03552,-0.00000040,-0.00000178,0.00001391,0.00001615,-0.00002476,0.0000
 2905,-0.00011529,0.00000079,-0.00004622,0.00000731,-0.00000487,0.00000
 999,0.00001582,-0.00004231,-0.00001090,-0.00000912,0.00013419,0.000116
 55,0.00006819,-0.00015989,-0.00007424,0.00005962,0.00000591,-0.0000554
 4,-0.00009254,0.00008491,0.00054178,0.00072989,0.00105106,-0.00081809,
 0.00012665,0.00000627,-0.00021225,0.00045866,0.00359211,-0.01736396,0.
 00179041,0.00698945,-0.00392774,0.00012090,-0.00021501,-0.00013398,-0.
 00079227,-0.00173368,0.00224558,0.00014848,0.00009674,0.00018598,0.000
 02049,0.00006579,-0.00023981,0.00007367,0.00025064,-0.00017348,-0.0000
 5039,-0.00000425,0.00000726,0.00000279,-0.00002229,0.00003511,-0.00066
 302,-0.00165099,0.00093105,0.00004925,0.00001332,-0.00002769,-0.000003
 41,-0.00001118,0.00000474,0.06038751,0.01575493,0.07575834,-0.00028389
 ,0.00062968,0.00043223,-0.00082964,-0.00059272,-0.00028909,0.00012451,
 -0.00004416,-0.00023824,0.00005059,-0.00014734,-0.00013217,0.00020439,
 -0.00035175,0.00056391,0.00000195,0.00003235,-0.00000535,-0.00000913,-
 0.00001543,-0.00000198,-0.00001185,0.00000800,0.00000999,-0.00000927,-
 0.00006033,0.00000646,-0.00000974,0.00000456,0.00000552,-0.00007223,-0
 .00004498,-0.00001821,0.00042175,0.00049159,-0.00025203,0.00001666,0.0
 0000527,-0.00001290,-0.00044328,0.00068123,-0.00006767,-0.00005823,-0.
 00000477,0.00003627,-0.00000513,0.00000222,0.00000340,0.00000325,-0.00
 000085,0.00000382,-0.00000350,0.00000752,0.00000099,-0.00000162,0.0000
 0572,-0.00001363,-0.00000343,-0.00000231,-0.00000779,-0.00114108,0.006
 63232,0.00012389,-0.01278426,-0.00081686,-0.00283519,-0.00035588,-0.00
 001891,-0.00006340,0.00000467,0.00001005,-0.00002360,0.00000633,-0.000
 00516,0.00000028,-0.00001185,-0.00000450,0.00000340,0.00001370,-0.0000
 0141,0.00004050,-0.00001596,-0.00000481,0.00000426,0.00000374,-0.00001
 415,-0.00000201,-0.00003943,0.00005002,0.00000330,0.00003809,-0.000039
 34,0.00004299,0.00000826,-0.00001426,0.00000446,-0.00004164,0.00000385
 ,0.00000746,0.00001636,-0.00001125,0.00000051,-0.00000197,0.00000165,-
 0.00000258,0.00000521,0.00000429,-0.00000293,-0.00000526,0.00000076,-0
 .00000111,-0.00000535,0.00000347,-0.00000153,-0.00000348,-0.00000678,0
 .00001209,0.00000219,0.00000294,-0.00000894,-0.00000248,0.00000369,-0.
 00000449,0.00003432,-0.00001520,0.00002181,0.00000242,-0.00002689,0.00
 000550,-0.00000277,0.00002624,-0.00000079,0.00009096,0.00000326,0.0000
 1757,-0.00000487,0.00005448,-0.00015523,-0.00002306,-0.00001129,0.0000
 0983,0.00095724,-0.00038883,-0.00058621,-0.00054803,-0.00077946,0.0003
 9678,-0.00011361,-0.00005376,0.00013786,0.00077570,-0.00630618,0.00550
 478,-0.00017353,0.00022230,-0.00020074,0.00019577,0.00002206,-0.000084
 96,-0.00044910,-0.00022134,0.00028260,0.00009789,0.00005402,0.00001580
 ,0.00002515,-0.00000949,-0.00006142,-0.00000747,0.00007098,-0.00014260
 ,0.00000571,-0.00000793,0.00001758,0.00000276,-0.00000154,0.00000242,-
 0.00085978,0.00014402,0.00014901,-0.00000807,0.00000092,0.00000260,0.0
 0000201,0.00000386,-0.00000625,-0.02458996,0.01064307,0.01170419,0.035
 81829,-0.00266613,0.00189995,-0.00177145,-0.00116642,-0.00063383,0.000
 28435,0.00064226,-0.00049452,0.00003167,0.00011468,-0.00035485,-0.0002
 9130,-0.00033985,-0.00070381,-0.00021316,0.00002634,0.00001065,-0.0000
 4362,0.00000178,-0.00003864,-0.00000581,0.00010073,0.00005580,0.000269
 66,-0.00002810,-0.00014231,-0.00005033,-0.00000178,0.00000877,0.000049
 56,-0.00010955,-0.00001055,-0.00003965,0.00072177,-0.00049479,-0.00022
 416,0.00002502,0.00004881,-0.00009512,0.00088423,-0.00149782,-0.000485
 78,0.00008030,-0.00014989,0.00011743,0.00001537,-0.00000607,0.00002853
 ,-0.00000091,0.00000196,-0.00001857,-0.00002353,0.00000075,0.00001341,
 -0.00001188,0.00000887,-0.00009766,-0.00001540,-0.00000567,-0.00001133
 ,0.01323950,0.01230228,0.01427674,-0.00929093,0.01082372,-0.00763887,0
 .00087344,0.00015078,-0.00118331,0.00002855,0.00003743,-0.00009465,0.0
 0001699,0.00000908,-0.00000254,-0.00002691,-0.00001698,0.00002179,0.00
 015472,-0.00008046,-0.00012632,-0.00003926,-0.00000834,-0.00000533,-0.
 00002834,-0.00001843,0.00003500,0.00003297,0.00001323,-0.00008097,-0.0
 0006620,0.00005831,-0.00001908,0.00000642,0.00000323,0.00000263,-0.000
 07168,-0.00001319,0.00009554,0.00000344,-0.00002648,-0.00001252,-0.000
 00685,0.00003882,-0.00005478,0.00000773,-0.00003618,0.00005540,-0.0000
 0368,0.00000969,0.00000533,-0.00001103,-0.00000634,-0.00000654,0.00001
 855,-0.00006024,0.00008250,0.00000241,0.00000629,-0.00003527,-0.000036
 58,0.00005620,-0.00006621,0.00026028,-0.00001344,0.00009561,-0.0000125
 4,-0.00001847,-0.00000920,-0.00004793,0.00010121,0.00001768,0.00007197
 ,-0.00018139,-0.00015721,0.00003900,0.00034433,0.00013105,-0.00011259,
 -0.00002818,0.00009874,-0.00000348,0.00046629,-0.00172199,0.00198788,-
 0.00364910,0.00006701,-0.00043171,-0.00005652,0.00067262,-0.00637530,0
 .00669481,0.01821705,-0.00087923,-0.00034264,-0.00193066,0.00007107,0.
 00007626,0.00007301,0.00081175,0.00121975,-0.00323174,-0.00011632,0.00
 008325,0.00005721,-0.00007577,-0.00009512,0.00035828,-0.00000856,-0.00
 028439,0.00014003,0.00005179,0.00000059,0.00000894,-0.00000491,0.00004
 980,-0.00007890,0.00133694,-0.00081168,0.00001392,-0.00011149,-0.00002
 702,0.00006166,0.00000767,0.00002699,-0.00001429,0.00680840,0.00271338
 ,0.02297774,-0.00360273,-0.02841702,-0.00173955,0.00134617,-0.00120292
 ,-0.00110875,-0.00028074,-0.00038541,0.00048271,-0.00017078,-0.0001313
 8,0.00007008,-0.00021062,-0.00023248,-0.00053245,-0.00011504,-0.000013
 57,0.00000359,-0.00000355,-0.00002556,0.00000024,-0.00002090,-0.000010
 64,0.00005957,0.00004594,0.00019826,-0.00003223,-0.00010547,0.00000138
 ,0.00000123,0.00000764,0.00003551,-0.00005458,-0.00001372,-0.00005266,
 0.00083723,-0.00038916,-0.00015675,0.00002349,0.00002146,-0.00005517,0
 .00105333,-0.00162968,-0.00121950,0.00011846,-0.00014336,0.00008367,0.
 00000800,0.00000119,0.00001742,-0.00000178,0.00000286,-0.00001128,-0.0
 0001085,0.00000125,0.00000653,-0.00000539,0.00000437,-0.00005051,-0.00
 000906,-0.00000493,-0.00000697,0.00458760,0.01196873,0.00983663,-0.008
 87490,0.03057485,-0.00942598,0.00079406,0.00027092,-0.00094008,0.00003
 024,0.00001811,-0.00006350,0.00000887,0.00000526,-0.00000212,-0.000014
 71,-0.00001465,0.00000947,0.00004103,0.00000555,-0.00012786,-0.0000297
 7,-0.00000638,-0.00000135,-0.00002853,-0.00001363,0.00002413,0.0000278
 5,0.00001488,-0.00005032,-0.00004148,0.00003545,-0.00000056,0.00000767
 ,0.00000105,0.00000485,-0.00004744,-0.00000787,0.00005317,0.00000208,-
 0.00001635,-0.00000774,-0.00000231,0.00002050,-0.00002938,0.00000514,-
 0.00001751,0.00002905,-0.00000269,0.00000456,0.00000389,-0.00000751,-0
 .00000286,-0.00000204,0.00000631,-0.00002978,0.00004230,0.00000169,0.0
 0000356,-0.00001862,-0.00001788,0.00002843,-0.00003358,0.00013193,-0.0
 0000626,0.00005954,0.00000225,-0.00001759,-0.00000444,-0.00002360,0.00
 006592,0.00002691,-0.00000480,-0.00017164,-0.00005004,0.00000049,0.000
 26401,0.00006920,-0.00006548,-0.00000233,0.00004373,0.00054135,-0.0000
 1952,-0.00134002,0.00148222,-0.00281894,0.00019611,-0.00027109,0.00003
 229,0.00040248,-0.00033738,0.01638125,-0.00044913,-0.00009194,0.001114
 96,-0.00102720,-0.00010074,-0.00002652,0.00020367,0.00093675,0.0004043
 2,-0.00190831,-0.00007034,0.00008006,-0.00006769,-0.00004894,-0.000000
 59,0.00019447,-0.00002259,-0.00017024,0.00002841,0.00000757,0.00001606
 ,-0.00000783,-0.00000152,0.00002696,-0.00004165,0.00188922,-0.00100303
 ,0.00021592,-0.00005506,-0.00001235,0.00002898,0.00000437,0.00001451,-
 0.00000770,0.00301350,-0.01119245,-0.00892910,-0.00216926,-0.04509860,
 0.01666668,0.00003422,0.00029740,0.00035494,-0.00026867,-0.00012059,-0
 .00013946,-0.00004549,-0.00017234,-0.00005571,0.00008075,-0.00009005,-
 0.00001029,-0.00070430,0.00067237,-0.00167522,0.00002066,0.00000741,0.
 00000396,-0.00000530,-0.00000484,0.00000401,-0.00001573,-0.00001926,-0
 .00000324,0.00001662,-0.00002112,0.00001608,0.00000550,-0.00000032,0.0
 0000403,0.00002475,-0.00003850,0.00004258,0.00013049,0.00006846,0.0001
 1650,0.00000442,-0.00000153,0.00000110,-0.00003361,0.00001110,0.000004
 85,0.00000363,0.00013069,-0.00003858,-0.00000598,0.00000049,-0.0000010
 3,0.00000173,-0.00000080,0.00000152,0.00000137,0.00000149,0.00000496,-
 0.00000374,0.00000231,-0.00001224,0.00000213,0.00000343,-0.00000674,0.
 00493011,-0.00110823,-0.00198346,-0.00095813,0.00116036,0.00000871,-0.
 00014758,-0.00071547,-0.00020204,-0.00000712,0.00000654,-0.00000288,0.
 00000278,-0.00000197,-0.00000063,-0.00000412,-0.00000402,0.00000689,-0
 .00001390,-0.00002052,0.00003235,-0.00000098,0.00000449,-0.00000127,-0
 .00000901,0.00000385,-0.00000349,-0.00000371,0.00001095,0.00000585,0.0
 0000731,-0.00000682,0.00000135,0.00000272,-0.00000297,0.00000182,-0.00
 001440,0.00000137,0.00000422,0.00000503,-0.00000501,0.00000177,-0.0000
 0049,0.00000093,-0.00000112,0.00000210,-0.00000018,-0.00000063,-0.0000
 0108,0.00000068,-0.00000039,-0.00000127,0.00000054,-0.00000084,-0.0000
 0215,-0.00000196,0.00000397,0.00000056,0.00000119,-0.00000290,-0.00000
 095,0.00000145,-0.00000165,0.00002823,-0.00002177,0.00002596,-0.000009
 16,0.00001554,0.00000226,-0.00000514,-0.00000802,-0.00004025,0.0000012
 8,0.00005873,0.00000410,-0.00012893,-0.00017495,0.00001693,0.00002011,
 -0.00002193,-0.00001056,0.00012594,0.00057722,-0.00012019,-0.00335511,
 -0.00203290,0.00186838,-0.00000843,-0.00012358,-0.00003496,-0.00259137
 ,-0.00031223,-0.00086739,0.00019192,0.00019083,0.00016580,0.00000938,0
 .00000816,-0.00009250,0.00004688,0.00002321,0.00008223,-0.00000496,-0.
 00001763,-0.00000943,-0.00001123,0.00003946,-0.00001011,-0.00001234,-0
 .00000006,0.00000481,0.00000199,0.00000097,0.00000187,0.00000128,-0.00
 000047,0.00000117,0.00035525,-0.00083864,0.00020315,-0.00000158,0.0000
 0020,-0.00000278,0.00000011,0.00000117,-0.00000199,-0.22478920,0.00556
 366,-0.07096115,0.00399997,-0.00271642,-0.00035550,0.22310594,0.000002
 32,-0.00023974,-0.00031143,0.00033829,-0.00011860,0.00022969,-0.000048
 00,-0.00000926,0.00008547,-0.00001883,0.00004069,0.00005417,0.00049300
 ,0.00001844,0.00113355,-0.00001452,0.00001935,-0.00001790,-0.00000689,
 -0.00001034,0.00000287,0.00002908,0.00003470,-0.00002065,-0.00000707,0
 .00003210,-0.00003910,-0.00001524,0.00000505,0.00000784,-0.00003155,-0
 .00003729,0.00004634,0.00026683,0.00006374,-0.00041275,0.00001757,0.00
 001383,-0.00001893,0.00039687,-0.00055146,0.00049500,-0.00004010,0.000
 08602,0.00003028,0.00000094,-0.00000330,0.00000958,0.00000318,-0.00000
 107,0.00000276,-0.00000345,-0.00000143,0.00000811,-0.00000523,0.000005
 43,-0.00002462,0.00000069,-0.00000091,-0.00001029,0.00101246,-0.002697
 01,-0.00269777,0.00230173,-0.00077442,0.00076341,0.00010926,-0.0002855
 1,0.00007647,-0.00001073,0.00000848,-0.00000665,0.00000537,-0.00000161
 ,-0.00000216,-0.00000901,-0.00000562,0.00000823,0.00002114,0.00003800,
 -0.00001937,-0.00001438,-0.00000658,0.00000420,-0.00000827,-0.00001934
 ,0.00000126,-0.00005211,0.00006024,0.00000793,0.00005905,-0.00005133,0
 .00004668,0.00000756,-0.00000962,0.00000373,-0.00003279,0.00000218,0.0
 0001064,0.00001319,-0.00001234,-0.00000054,-0.00000198,0.00000402,-0.0
 0000558,0.00000567,-0.00000124,0.00000102,-0.00000411,0.00000191,-0.00
 000116,-0.00000352,0.00000093,-0.00000140,-0.00000276,-0.00000812,0.00
 001246,0.00000101,0.00000335,-0.00000725,-0.00000394,0.00000594,-0.000
 00658,0.00005252,-0.00001664,0.00003450,0.00000502,0.00001369,0.000002
 85,-0.00000576,-0.00001310,-0.00002257,-0.00008712,0.00006176,0.000012
 51,0.00017582,-0.00003185,0.00002487,0.00000916,-0.00001436,0.00000509
 ,-0.00020921,0.00028482,0.00017232,0.00047662,-0.00022721,-0.00046313,
 -0.00002266,-0.00000406,-0.00001128,-0.00899728,0.00059246,-0.00401234
 ,-0.00007000,0.00047399,-0.00019112,0.00022800,-0.00000497,-0.00008207
 ,-0.00007853,-0.00070254,0.00036537,0.00001294,0.00007840,0.00009867,0
 .00003062,-0.00000343,-0.00005847,0.00000179,0.00008013,-0.00011667,0.
 00001395,-0.00000136,0.00000297,0.00000173,0.00000075,-0.00000082,0.00
 061059,-0.00021787,0.00013887,-0.00001197,-0.00000350,0.00000561,0.000
 00138,0.00000435,-0.00000520,0.00957285,-0.01172631,0.00279271,-0.0061
 9967,0.00140306,0.00095400,-0.00026153,0.01437554,-0.00004667,-0.00026
 982,0.00026821,0.00033686,0.00043759,-0.00001960,0.00008560,0.00011555
 ,-0.00013835,-0.00005080,0.00008155,0.00002459,-0.00037794,0.00015026,
 -0.00095976,0.00000589,-0.00002952,-0.00000978,-0.00000296,0.00001327,
 0.00000818,0.00001324,-0.00002867,-0.00000196,0.00005040,0.00001390,0.
 00000914,-0.00000180,-0.00000256,-0.00000576,0.00003554,-0.00000408,-0
 .00006342,-0.00038634,0.00024982,-0.00032672,-0.00000417,-0.00000339,-
 0.00000499,-0.00020111,0.00034272,0.00000241,0.00002399,-0.00003034,0.
 00005583,-0.00000041,-0.00000148,0.00000042,-0.00000055,-0.00000032,-0
 .00000245,-0.00000832,-0.00000527,0.00000370,-0.00000330,0.00000619,-0
 .00001797,0.00000137,-0.00000257,-0.00000581,0.00073816,-0.00661554,-0
 .00067118,0.00331398,-0.00197941,0.00078304,0.00004405,0.00011979,0.00
 022074,-0.00000640,-0.00000396,0.00000127,-0.00000050,0.00000253,0.000
 00073,0.00000275,0.00000642,-0.00000086,-0.00003309,-0.00006201,0.0000
 3556,0.00001321,0.00001167,0.00000209,0.00001271,0.00000414,0.00000180
 ,0.00001779,-0.00002554,-0.00001459,-0.00002496,0.00002667,-0.00002811
 ,-0.00000410,0.00000764,-0.00000281,0.00001058,-0.00000118,0.00000463,
 -0.00000405,0.00000284,-0.00000247,-0.00000029,0.00000296,-0.00000395,
 0.00000035,-0.00000470,0.00000621,0.00000150,0.00000037,0.00000065,0.0
 0000192,-0.00000191,-0.00000024,0.00000097,-0.00000285,0.00000334,-0.0
 0000072,0.00000033,0.00000079,-0.00000277,0.00000396,-0.00000435,0.000
 03684,-0.00000983,0.00003315,0.00001716,0.00002304,-0.00000481,0.00000
 889,-0.00002596,-0.00002926,-0.00019329,0.00004894,-0.00006507,-0.0000
 0923,-0.00002966,0.00003961,0.00002327,0.00000078,0.00000407,-0.000031
 30,-0.00038359,0.00034423,-0.00017503,0.00132937,-0.00001516,0.0000552
 5,-0.00002000,-0.00008298,0.00468504,-0.00181660,0.00144855,0.00029417
 ,0.00000720,-0.00006935,-0.00018625,0.00002055,0.00012034,0.00006551,0
 .00031918,-0.00054155,-0.00001509,-0.00001713,-0.00008836,0.00000049,0
 .00000606,0.00007777,-0.00000892,-0.00005094,0.00008748,0.00000131,-0.
 00000430,-0.00000198,-0.00000149,0.00000525,-0.00000858,0.00013632,0.0
 0078079,-0.00001254,-0.00000816,-0.00000248,0.00000560,-0.00000047,-0.
 00000027,0.00000038,-0.06971541,-0.00017805,-0.03619086,-0.01218173,0.
 00655686,-0.00039138,0.07365251,0.00091579,0.03619255\\-0.00000073,0.0
 0000025,-0.00000022,0.00000011,0.00000020,-0.00000011,0.00000050,-0.00
 000185,-0.00000004,-0.00000037,-0.00000006,-0.00000067,0.00000016,-0.0
 0000031,-0.00000009,0.00000024,-0.00000133,0.00000407,0.00000855,-0.00
 001177,-0.00000642,0.00000007,-0.00000035,-0.00000062,0.00000198,0.000
 00034,-0.00000066,-0.00000148,-0.00000084,0.00000201,0.00000080,-0.000
 00043,-0.00000084,-0.00000084,0.00000020,-0.00000004,-0.00000400,0.000
 00618,0.00000026,0.00000120,0.00000041,0.00000038,-0.00000054,0.000000
 41,-0.00000050,-0.00000856,0.00000286,0.00000044,0.00000278,0.00000014
 ,0.00000078,0.00000159,0.00000467,0.00000265,-0.00000205,0.00000065,0.
 00000739,-0.00000024,-0.00000209,-0.00000415,0.00000002,0.00000013,-0.
 00000032,0.00000079,0.00000077,-0.00000015,0.00000031,-0.00000044,-0.0
 0000035,-0.00000493,0.00000358,-0.00000119,0.00000261,-0.00000061,-0.0
 0000419,0.00000171,-0.00000373,0.00000071,0.00000051,0.00000082,0.0000
 0322,0.00000127,0.00000125,0.00000077,0.00000028,-0.00000227,-0.000001
 68,0.00000346,-0.00000220,-0.00000203,0.00000014,-0.00000259,-0.000001
 26,0.00000180,0.00000287,0.00000063,0.00000868,-0.00001000,-0.00000690
 ,-0.00001079,0.00000820,0.00000234,0.00000116,-0.00001010,0.00000958,-
 0.00000723,0.00001631,-0.00000123,-0.00002132,0.00001298,0.00000091,0.
 00000073,0.00001229,0.00001239,0.00001817,-0.00002748,-0.00002956,-0.0
 0000364,0.00000546,0.00000390,0.00000193,-0.00000276,0.00000428,0.0000
 0005,0.00000767,0.00000578,0.00000031,0.00000015,-0.00000054,0.0000030
 5,-0.00000145,-0.00000357,-0.00000162,0.00000010,-0.00000082,0.0000011
 8,-0.00000016,0.00000109,0.00000042,-0.00000054,-0.00000021,-0.0000009
 7,-0.00000009,0.00000126,0.00000012,-0.00000030,-0.00000015,0.00000012
 ,-0.00000012,-0.00000006,-0.00000229,-0.00000118,-0.00000163,0.0000005
 0,0.00000054,-0.00000082,-0.00000023,0.00000071,-0.00000099,0.00000136
 ,-0.00000386,0.00000408,0.00000122,0.00000124,-0.00000036,-0.00000014,
 0.00000058,-0.00000104,-0.00000131,0.00000334,0.00000022,0.,0.00000053
 ,0.00000012,0.00000140,0.00000101,0.00000549,0.00000011,0.00000029,-0.
 00000044,-0.00000094,-0.00000311,-0.00000315,0.00000244,-0.00000492,0.
 00000179,0.00000051,0.00000051,0.00000095,-0.00000040,-0.00000043,-0.0
 0000008,0.00000023,-0.00000030,-0.00000042\\\@
 The archive entry for this job was punched.


 NO MATTER HOW THIN YOU SLICE IT, IT'S STILL BALONEY

                                   -- ALFRED E. SMITH
 Job cpu time:       5 days 22 hours 33 minutes 35.3 seconds.
 Elapsed time:       0 days  3 hours  6 minutes 35.7 seconds.
 File lengths (MBytes):  RWF=  13918 Int=      0 D2E=      0 Chk=    137 Scr=      2
 Normal termination of Gaussian 16 at Tue Feb 21 05:47:15 2023.
