 Entering Gaussian System, Link 0=g16
 Initial command:
 /home/chesagar/softwares/G16_AVX2//g16/l1.exe "/home/chesagar/scratch/Gau-160076.inp" -scrdir="/home/chesagar/scratch/"
 Entering Link 1 = /home/chesagar/softwares/G16_AVX2//g16/l1.exe PID=    160077.
  
 Copyright (c) 1988-2019, Gaussian, Inc.  All Rights Reserved.
  
 This is part of the Gaussian(R) 16 program.  It is based on
 the Gaussian(R) 09 system (copyright 2009, Gaussian, Inc.),
 the Gaussian(R) 03 system (copyright 2003, Gaussian, Inc.),
 the Gaussian(R) 98 system (copyright 1998, Gaussian, Inc.),
 the Gaussian(R) 94 system (copyright 1995, Gaussian, Inc.),
 the Gaussian 92(TM) system (copyright 1992, Gaussian, Inc.),
 the Gaussian 90(TM) system (copyright 1990, Gaussian, Inc.),
 the Gaussian 88(TM) system (copyright 1988, Gaussian, Inc.),
 the Gaussian 86(TM) system (copyright 1986, Carnegie Mellon
 University), and the Gaussian 82(TM) system (copyright 1983,
 Carnegie Mellon University). Gaussian is a federally registered
 trademark of Gaussian, Inc.
  
 This software contains proprietary and confidential information,
 including trade secrets, belonging to Gaussian, Inc.
  
 This software is provided under written license and may be
 used, copied, transmitted, or stored only in accord with that
 written license.
  
 The following legend is applicable only to US Government
 contracts under FAR:
  
                    RESTRICTED RIGHTS LEGEND
  
 Use, reproduction and disclosure by the US Government is
 subject to restrictions as set forth in subparagraphs (a)
 and (c) of the Commercial Computer Software - Restricted
 Rights clause in FAR 52.227-19.
  
 Gaussian, Inc.
 340 Quinnipiac St., Bldg. 40, Wallingford CT 06492
  
  
 ---------------------------------------------------------------
 Warning -- This program may not be used in any manner that
 competes with the business of Gaussian, Inc. or will provide
 assistance to any competitor of Gaussian, Inc.  The licensee
 of this program is prohibited from giving any competitor of
 Gaussian, Inc. access to this program.  By using this program,
 the user acknowledges that Gaussian, Inc. is engaged in the
 business of creating and licensing software in the field of
 computational chemistry and represents and warrants to the
 licensee that it is not a competitor of Gaussian, Inc. and that
 it will not use this program in any manner prohibited above.
 ---------------------------------------------------------------
  

 Cite this work as:
 Gaussian 16, Revision C.01,
 M. J. Frisch, G. W. Trucks, H. B. Schlegel, G. E. Scuseria, 
 M. A. Robb, J. R. Cheeseman, G. Scalmani, V. Barone, 
 G. A. Petersson, H. Nakatsuji, X. Li, M. Caricato, A. V. Marenich, 
 J. Bloino, B. G. Janesko, R. Gomperts, B. Mennucci, H. P. Hratchian, 
 J. V. Ortiz, A. F. Izmaylov, J. L. Sonnenberg, D. Williams-Young, 
 F. Ding, F. Lipparini, F. Egidi, J. Goings, B. Peng, A. Petrone, 
 T. Henderson, D. Ranasinghe, V. G. Zakrzewski, J. Gao, N. Rega, 
 G. Zheng, W. Liang, M. Hada, M. Ehara, K. Toyota, R. Fukuda, 
 J. Hasegawa, M. Ishida, T. Nakajima, Y. Honda, O. Kitao, H. Nakai, 
 T. Vreven, K. Throssell, J. A. Montgomery, Jr., J. E. Peralta, 
 F. Ogliaro, M. J. Bearpark, J. J. Heyd, E. N. Brothers, K. N. Kudin, 
 V. N. Staroverov, T. A. Keith, R. Kobayashi, J. Normand, 
 K. Raghavachari, A. P. Rendell, J. C. Burant, S. S. Iyengar, 
 J. Tomasi, M. Cossi, J. M. Millam, M. Klene, C. Adamo, R. Cammi, 
 J. W. Ochterski, R. L. Martin, K. Morokuma, O. Farkas, 
 J. B. Foresman, and D. J. Fox, Gaussian, Inc., Wallingford CT, 2019.
 
 ******************************************
 Gaussian 16:  ES64L-G16RevC.01  3-Jul-2019
                21-Feb-2023 
 ******************************************
 %nprocshared=46
 Will use up to   46 processors via shared memory.
 %chk=Mo19S43_H2S_i1_f.chk
 %mem=100GB
 ---------------------------------------------------------
 # opt freq b3lyp/gen nosymm pseudo=read scf=maxcycles=500
 ---------------------------------------------------------
 1/18=20,19=15,26=3,38=1/1,3;
 2/9=110,12=2,15=1,17=6,18=5,40=1/2;
 3/5=7,11=2,16=1,17=8,25=1,30=1,71=1,74=-5/1,2,3;
 4//1;
 5/5=2,7=500,38=5/2;
 6/7=2,8=2,9=2,10=2,28=1/1;
 7/30=1/1,2,3,16;
 1/18=20,19=15,26=3/3(2);
 2/9=110,15=1/2;
 99//99;
 2/9=110,15=1/2;
 3/5=7,6=1,11=2,16=1,17=8,25=1,30=1,71=1,74=-5,82=7/1,2,3;
 4/5=5,16=3,69=1/1;
 5/5=2,7=500,38=5/2;
 7/30=1/1,2,3,16;
 1/18=20,19=15,26=3/3(-5);
 2/9=110,15=1/2;
 6/7=2,8=2,9=2,10=2,19=2,28=1/1;
 99/9=1/99;
 -------------------
 Title Card Required
 -------------------
 Symbolic Z-matrix:
 Charge =  0 Multiplicity = 1
 42                    0.27664   1.27251   12.57345 
 16                    2.2719    2.18503   13.62057 
 16                   -0.80708   2.00499   14.76746 
 16                   -0.50806   0.97784   10.29087 
 16                    1.89134  -0.42843   11.93418 
 42                   -2.0796    2.68134   10.97975 
 16                   -2.90532   2.50291   8.6921 
 16                   -0.10868   3.59314   12.03977 
 42                    0.91979   2.92455   9.91673 
 16                    0.10459   2.68375   7.61637 
 16                    2.53606   1.20973   9.25153 
 42                    3.31639   1.50037   11.52318 
 42                   -1.44873   4.42476   8.33623 
 16                    5.36458   2.43543   12.68998 
 16                    2.93984   3.81749   10.97253 
 16                   -2.39238   5.03846   10.49935 
 16                    1.32309   6.94725   6.48485 
 42                   -4.47612   4.2882    9.52137 
 16                   -5.95567   2.23347   9.65662 
 16                   -5.51286   4.74938   11.43241 
 42                    2.58958  -0.12916   14.24149 
 16                    4.72489   0.77433   15.36399 
 16                    1.60868   0.59349   16.26693 
 42                    1.57406   4.58176   7.2855 
 16                    0.67887   4.38875   4.9081 
 16                    0.56302   5.28253   9.36828 
 42                    3.9935    3.11605   8.88912 
 16                    3.21492   2.86924   6.61158 
 16                    3.5618    5.45436   8.39887 
 42                    4.57817   4.82135   6.36642 
 16                    6.78084   4.08721   5.9747 
 16                    4.35268   7.00684   5.68484 
 42                    2.4498    5.96581   4.45319 
 16                    3.94523   4.38331   3.95997 
 16                   -1.44615   7.35158   4.08705 
 42                   -0.86747   6.13151   5.7119 
 16                   -2.37953   4.35309   6.01443 
 16                   -1.76129   6.86544   7.7703 
 42                   -3.66326   6.06073   6.658 
 16                   -5.7078    4.81448   7.41552 
 16                   -4.42967   7.27852   5.11477 
 42                   -5.23991   2.28026   11.76612 
 16                   -3.33471   3.23537   13.08598 
 16                   -3.52548   0.63379   11.42066 
 42                   -2.66133   0.92522   13.73284 
 16                   -1.1728   -0.78155   12.9933 
 16                   -4.14071   0.24047   15.075 
 42                   -0.38242  -0.34112   15.24043 
 16                    1.23378  -2.03318   14.60127 
 16                   -1.37194  -1.24659   16.87819 
 42                    5.70503   0.11584   13.12891 
 16                    4.95148  -0.33984   10.91516 
 16                    8.29868   1.08901   11.00528 
 42                    6.28758   1.64743   10.60832 
 16                    5.73092   1.24467   8.20476 
 16                    6.13807   4.0506    9.96897 
 42                    7.04245   3.12876   8.03163 
 16                    9.10722   2.71821   8.24119 
 16                    2.09302   7.03486   2.66514 
 16                    7.61936  -0.53572   13.77518 
 16                   -6.86905   1.61034   12.93917 
 16                   -5.18093   6.5049    8.57271 
 16                    4.36335  -1.8948    13.79365 
 1                     5.03267  -0.35151   16.0445 
 1                     3.95345  -2.46055   12.6406 
 

 GradGradGradGradGradGradGradGradGradGradGradGradGradGradGradGradGradGrad
 Berny optimization.
 Initialization pass.
                           ----------------------------
                           !    Initial Parameters    !
                           ! (Angstroms and Degrees)  !
 --------------------------                            --------------------------
 ! Name  Definition              Value          Derivative Info.                !
 --------------------------------------------------------------------------------
 ! R1    R(1,2)                  2.4311         estimate D2E/DX2                !
 ! R2    R(1,3)                  2.5543         estimate D2E/DX2                !
 ! R3    R(1,4)                  2.4316         estimate D2E/DX2                !
 ! R4    R(1,5)                  2.4309         estimate D2E/DX2                !
 ! R5    R(1,8)                  2.4122         estimate D2E/DX2                !
 ! R6    R(1,46)                 2.5488         estimate D2E/DX2                !
 ! R7    R(2,12)                 2.4411         estimate D2E/DX2                !
 ! R8    R(2,21)                 2.417          estimate D2E/DX2                !
 ! R9    R(3,45)                 2.3821         estimate D2E/DX2                !
 ! R10   R(3,48)                 2.4307         estimate D2E/DX2                !
 ! R11   R(4,6)                  2.4179         estimate D2E/DX2                !
 ! R12   R(4,9)                  2.443          estimate D2E/DX2                !
 ! R13   R(5,12)                 2.4331         estimate D2E/DX2                !
 ! R14   R(5,21)                 2.4291         estimate D2E/DX2                !
 ! R15   R(6,7)                  2.4386         estimate D2E/DX2                !
 ! R16   R(6,8)                  2.4165         estimate D2E/DX2                !
 ! R17   R(6,16)                 2.4258         estimate D2E/DX2                !
 ! R18   R(6,43)                 2.5137         estimate D2E/DX2                !
 ! R19   R(6,44)                 2.5451         estimate D2E/DX2                !
 ! R20   R(7,13)                 2.4376         estimate D2E/DX2                !
 ! R21   R(7,18)                 2.5184         estimate D2E/DX2                !
 ! R22   R(8,9)                  2.452          estimate D2E/DX2                !
 ! R23   R(9,10)                 2.4524         estimate D2E/DX2                !
 ! R24   R(9,11)                 2.4486         estimate D2E/DX2                !
 ! R25   R(9,15)                 2.448          estimate D2E/DX2                !
 ! R26   R(9,26)                 2.4471         estimate D2E/DX2                !
 ! R27   R(10,13)                2.4417         estimate D2E/DX2                !
 ! R28   R(10,24)                2.4231         estimate D2E/DX2                !
 ! R29   R(11,12)                2.4195         estimate D2E/DX2                !
 ! R30   R(11,27)                2.4268         estimate D2E/DX2                !
 ! R31   R(12,14)                2.5359         estimate D2E/DX2                !
 ! R32   R(12,15)                2.4112         estimate D2E/DX2                !
 ! R33   R(12,52)                2.5357         estimate D2E/DX2                !
 ! R34   R(12,54)                3.1123         estimate D2E/DX2                !
 ! R35   R(13,16)                2.4385         estimate D2E/DX2                !
 ! R36   R(13,26)                2.4183         estimate D2E/DX2                !
 ! R37   R(13,37)                2.5025         estimate D2E/DX2                !
 ! R38   R(13,38)                2.5249         estimate D2E/DX2                !
 ! R39   R(14,51)                2.3852         estimate D2E/DX2                !
 ! R40   R(14,54)                2.4096         estimate D2E/DX2                !
 ! R41   R(15,27)                2.4378         estimate D2E/DX2                !
 ! R42   R(16,18)                2.421          estimate D2E/DX2                !
 ! R43   R(17,24)                2.5099         estimate D2E/DX2                !
 ! R44   R(17,33)                2.522          estimate D2E/DX2                !
 ! R45   R(17,36)                2.462          estimate D2E/DX2                !
 ! R46   R(18,19)                2.5356         estimate D2E/DX2                !
 ! R47   R(18,20)                2.2225         estimate D2E/DX2                !
 ! R48   R(18,40)                2.4957         estimate D2E/DX2                !
 ! R49   R(18,42)                3.1071         estimate D2E/DX2                !
 ! R50   R(18,62)                2.5121         estimate D2E/DX2                !
 ! R51   R(19,42)                2.2281         estimate D2E/DX2                !
 ! R52   R(20,42)                2.5065         estimate D2E/DX2                !
 ! R53   R(21,22)                2.576          estimate D2E/DX2                !
 ! R54   R(21,23)                2.3636         estimate D2E/DX2                !
 ! R55   R(21,49)                2.3649         estimate D2E/DX2                !
 ! R56   R(21,63)                2.5425         estimate D2E/DX2                !
 ! R57   R(22,51)                2.5278         estimate D2E/DX2                !
 ! R58   R(22,64)                1.351          estimate D2E/DX2                !
 ! R59   R(23,48)                2.4273         estimate D2E/DX2                !
 ! R60   R(24,25)                2.5477         estimate D2E/DX2                !
 ! R61   R(24,26)                2.4189         estimate D2E/DX2                !
 ! R62   R(24,28)                2.4656         estimate D2E/DX2                !
 ! R63   R(24,29)                2.4397         estimate D2E/DX2                !
 ! R64   R(25,33)                2.4146         estimate D2E/DX2                !
 ! R65   R(25,36)                2.4646         estimate D2E/DX2                !
 ! R66   R(27,28)                2.4196         estimate D2E/DX2                !
 ! R67   R(27,29)                2.4278         estimate D2E/DX2                !
 ! R68   R(27,30)                3.1006         estimate D2E/DX2                !
 ! R69   R(27,55)                2.6437         estimate D2E/DX2                !
 ! R70   R(27,56)                2.5766         estimate D2E/DX2                !
 ! R71   R(28,30)                2.3936         estimate D2E/DX2                !
 ! R72   R(29,30)                2.3589         estimate D2E/DX2                !
 ! R73   R(30,31)                2.3546         estimate D2E/DX2                !
 ! R74   R(30,32)                2.3004         estimate D2E/DX2                !
 ! R75   R(30,33)                3.0822         estimate D2E/DX2                !
 ! R76   R(30,34)                2.5266         estimate D2E/DX2                !
 ! R77   R(31,57)                2.2843         estimate D2E/DX2                !
 ! R78   R(32,33)                2.4943         estimate D2E/DX2                !
 ! R79   R(33,34)                2.2325         estimate D2E/DX2                !
 ! R80   R(33,59)                2.1136         estimate D2E/DX2                !
 ! R81   R(35,36)                2.1127         estimate D2E/DX2                !
 ! R82   R(36,37)                2.3539         estimate D2E/DX2                !
 ! R83   R(36,38)                2.3611         estimate D2E/DX2                !
 ! R84   R(36,39)                2.9524         estimate D2E/DX2                !
 ! R85   R(37,39)                2.2312         estimate D2E/DX2                !
 ! R86   R(38,39)                2.3457         estimate D2E/DX2                !
 ! R87   R(39,40)                2.5114         estimate D2E/DX2                !
 ! R88   R(39,41)                2.11           estimate D2E/DX2                !
 ! R89   R(39,62)                2.4833         estimate D2E/DX2                !
 ! R90   R(40,62)                2.1152         estimate D2E/DX2                !
 ! R91   R(42,43)                2.5068         estimate D2E/DX2                !
 ! R92   R(42,44)                2.402          estimate D2E/DX2                !
 ! R93   R(42,61)                2.1163         estimate D2E/DX2                !
 ! R94   R(43,45)                2.4917         estimate D2E/DX2                !
 ! R95   R(44,45)                2.4855         estimate D2E/DX2                !
 ! R96   R(45,46)                2.3824         estimate D2E/DX2                !
 ! R97   R(45,47)                2.1116         estimate D2E/DX2                !
 ! R98   R(45,48)                3.0116         estimate D2E/DX2                !
 ! R99   R(46,48)                2.4225         estimate D2E/DX2                !
 ! R100  R(48,49)                2.4256         estimate D2E/DX2                !
 ! R101  R(48,50)                2.1169         estimate D2E/DX2                !
 ! R102  R(51,52)                2.3825         estimate D2E/DX2                !
 ! R103  R(51,54)                3.0064         estimate D2E/DX2                !
 ! R104  R(51,60)                2.1229         estimate D2E/DX2                !
 ! R105  R(51,63)                2.5069         estimate D2E/DX2                !
 ! R106  R(52,54)                2.4142         estimate D2E/DX2                !
 ! R107  R(53,54)                2.1246         estimate D2E/DX2                !
 ! R108  R(54,55)                2.4998         estimate D2E/DX2                !
 ! R109  R(54,56)                2.4913         estimate D2E/DX2                !
 ! R110  R(54,57)                3.0665         estimate D2E/DX2                !
 ! R111  R(55,57)                2.3021         estimate D2E/DX2                !
 ! R112  R(56,57)                2.3283         estimate D2E/DX2                !
 ! R113  R(57,58)                2.1156         estimate D2E/DX2                !
 ! R114  R(63,65)                1.3482         estimate D2E/DX2                !
 ! A1    A(2,1,3)               82.5654         estimate D2E/DX2                !
 ! A2    A(2,1,4)              135.6155         estimate D2E/DX2                !
 ! A3    A(2,1,5)               80.2558         estimate D2E/DX2                !
 ! A4    A(2,1,8)               82.2578         estimate D2E/DX2                !
 ! A5    A(2,1,46)             134.2887         estimate D2E/DX2                !
 ! A6    A(3,1,4)              134.759          estimate D2E/DX2                !
 ! A7    A(3,1,5)              135.101          estimate D2E/DX2                !
 ! A8    A(3,1,8)               81.1634         estimate D2E/DX2                !
 ! A9    A(3,1,46)              81.2767         estimate D2E/DX2                !
 ! A10   A(4,1,5)               83.2639         estimate D2E/DX2                !
 ! A11   A(4,1,8)               81.7989         estimate D2E/DX2                !
 ! A12   A(4,1,46)              82.73           estimate D2E/DX2                !
 ! A13   A(5,1,8)              136.1448         estimate D2E/DX2                !
 ! A14   A(5,1,46)              81.7879         estimate D2E/DX2                !
 ! A15   A(8,1,46)             136.1301         estimate D2E/DX2                !
 ! A16   A(1,2,12)              82.8663         estimate D2E/DX2                !
 ! A17   A(1,2,21)              81.9021         estimate D2E/DX2                !
 ! A18   A(12,2,21)             84.0269         estimate D2E/DX2                !
 ! A19   A(1,3,45)              80.0499         estimate D2E/DX2                !
 ! A20   A(1,3,48)              79.4106         estimate D2E/DX2                !
 ! A21   A(1,4,6)               81.774          estimate D2E/DX2                !
 ! A22   A(1,4,9)               81.8705         estimate D2E/DX2                !
 ! A23   A(6,4,9)               82.0738         estimate D2E/DX2                !
 ! A24   A(1,5,12)              83.0372         estimate D2E/DX2                !
 ! A25   A(1,5,21)              81.6594         estimate D2E/DX2                !
 ! A26   A(12,5,21)             83.94           estimate D2E/DX2                !
 ! A27   A(4,6,7)               84.3332         estimate D2E/DX2                !
 ! A28   A(4,6,8)               81.9928         estimate D2E/DX2                !
 ! A29   A(4,6,16)             135.395          estimate D2E/DX2                !
 ! A30   A(4,6,43)             135.9352         estimate D2E/DX2                !
 ! A31   A(4,6,44)              81.4771         estimate D2E/DX2                !
 ! A32   A(7,6,8)              135.6649         estimate D2E/DX2                !
 ! A33   A(7,6,16)              80.8899         estimate D2E/DX2                !
 ! A34   A(7,6,43)             129.2788         estimate D2E/DX2                !
 ! A35   A(7,6,44)              84.9107         estimate D2E/DX2                !
 ! A36   A(8,6,16)              79.9443         estimate D2E/DX2                !
 ! A37   A(8,6,43)              87.5081         estimate D2E/DX2                !
 ! A38   A(8,6,44)             133.7026         estimate D2E/DX2                !
 ! A39   A(16,6,43)             83.5343         estimate D2E/DX2                !
 ! A40   A(16,6,44)            137.9695         estimate D2E/DX2                !
 ! A41   A(43,6,44)             75.4334         estimate D2E/DX2                !
 ! A42   A(6,7,13)              82.9309         estimate D2E/DX2                !
 ! A43   A(6,7,18)              81.3979         estimate D2E/DX2                !
 ! A44   A(13,7,18)             82.0603         estimate D2E/DX2                !
 ! A45   A(1,8,6)               82.2028         estimate D2E/DX2                !
 ! A46   A(1,8,9)               82.0813         estimate D2E/DX2                !
 ! A47   A(6,8,9)               81.9176         estimate D2E/DX2                !
 ! A48   A(4,9,8)               80.7658         estimate D2E/DX2                !
 ! A49   A(4,9,10)              82.5957         estimate D2E/DX2                !
 ! A50   A(4,9,11)              82.4924         estimate D2E/DX2                !
 ! A51   A(4,9,15)             134.9827         estimate D2E/DX2                !
 ! A52   A(4,9,26)             135.8028         estimate D2E/DX2                !
 ! A53   A(8,9,10)             134.3891         estimate D2E/DX2                !
 ! A54   A(8,9,11)             134.6738         estimate D2E/DX2                !
 ! A55   A(8,9,15)              82.7165         estimate D2E/DX2                !
 ! A56   A(8,9,26)              82.5393         estimate D2E/DX2                !
 ! A57   A(10,9,11)             84.0205         estimate D2E/DX2                !
 ! A58   A(10,9,15)            135.6166         estimate D2E/DX2                !
 ! A59   A(10,9,26)             80.5564         estimate D2E/DX2                !
 ! A60   A(11,9,15)             80.0917         estimate D2E/DX2                !
 ! A61   A(11,9,26)            135.2505         estimate D2E/DX2                !
 ! A62   A(15,9,26)             82.2695         estimate D2E/DX2                !
 ! A63   A(9,10,13)             82.2364         estimate D2E/DX2                !
 ! A64   A(9,10,24)             81.3489         estimate D2E/DX2                !
 ! A65   A(13,10,24)            82.3881         estimate D2E/DX2                !
 ! A66   A(9,11,12)             82.7437         estimate D2E/DX2                !
 ! A67   A(9,11,27)             83.5039         estimate D2E/DX2                !
 ! A68   A(12,11,27)            81.4982         estimate D2E/DX2                !
 ! A69   A(2,12,5)              80.0142         estimate D2E/DX2                !
 ! A70   A(2,12,11)            134.6209         estimate D2E/DX2                !
 ! A71   A(2,12,14)             81.1899         estimate D2E/DX2                !
 ! A72   A(2,12,15)             81.9444         estimate D2E/DX2                !
 ! A73   A(2,12,52)            133.2747         estimate D2E/DX2                !
 ! A74   A(2,12,54)            130.3754         estimate D2E/DX2                !
 ! A75   A(5,12,11)             82.7889         estimate D2E/DX2                !
 ! A76   A(5,12,14)            133.4429         estimate D2E/DX2                !
 ! A77   A(5,12,15)            135.1457         estimate D2E/DX2                !
 ! A78   A(5,12,52)             80.9597         estimate D2E/DX2                !
 ! A79   A(5,12,54)            130.2592         estimate D2E/DX2                !
 ! A80   A(11,12,14)           137.4585         estimate D2E/DX2                !
 ! A81   A(11,12,15)            81.4108         estimate D2E/DX2                !
 ! A82   A(11,12,52)            84.0107         estimate D2E/DX2                !
 ! A83   A(11,12,54)            92.1538         estimate D2E/DX2                !
 ! A84   A(14,12,15)            82.9273         estimate D2E/DX2                !
 ! A85   A(14,12,52)            81.7847         estimate D2E/DX2                !
 ! A86   A(15,12,52)           138.0173         estimate D2E/DX2                !
 ! A87   A(15,12,54)            92.0946         estimate D2E/DX2                !
 ! A88   A(7,13,10)             82.0108         estimate D2E/DX2                !
 ! A89   A(7,13,16)             80.6582         estimate D2E/DX2                !
 ! A90   A(7,13,26)            135.5986         estimate D2E/DX2                !
 ! A91   A(7,13,37)             83.7197         estimate D2E/DX2                !
 ! A92   A(7,13,38)            136.1282         estimate D2E/DX2                !
 ! A93   A(10,13,16)           133.4047         estimate D2E/DX2                !
 ! A94   A(10,13,26)            81.345          estimate D2E/DX2                !
 ! A95   A(10,13,37)            86.7131         estimate D2E/DX2                !
 ! A96   A(10,13,38)           134.5811         estimate D2E/DX2                !
 ! A97   A(16,13,26)            81.6094         estimate D2E/DX2                !
 ! A98   A(16,13,37)           133.3387         estimate D2E/DX2                !
 ! A99   A(16,13,38)            84.701          estimate D2E/DX2                !
 ! A100  A(26,13,37)           135.6882         estimate D2E/DX2                !
 ! A101  A(26,13,38)            81.7068         estimate D2E/DX2                !
 ! A102  A(37,13,38)            76.9196         estimate D2E/DX2                !
 ! A103  A(12,14,51)            80.8723         estimate D2E/DX2                !
 ! A104  A(9,15,12)             82.9252         estimate D2E/DX2                !
 ! A105  A(9,15,27)             83.2874         estimate D2E/DX2                !
 ! A106  A(12,15,27)            81.4407         estimate D2E/DX2                !
 ! A107  A(6,16,13)             83.1791         estimate D2E/DX2                !
 ! A108  A(6,16,18)             83.6763         estimate D2E/DX2                !
 ! A109  A(13,16,18)            84.073          estimate D2E/DX2                !
 ! A110  A(24,17,33)            81.1144         estimate D2E/DX2                !
 ! A111  A(24,17,36)            82.9261         estimate D2E/DX2                !
 ! A112  A(33,17,36)            90.8965         estimate D2E/DX2                !
 ! A113  A(7,18,16)             79.3892         estimate D2E/DX2                !
 ! A114  A(7,18,19)             78.8753         estimate D2E/DX2                !
 ! A115  A(7,18,20)            136.1522         estimate D2E/DX2                !
 ! A116  A(7,18,40)            100.3384         estimate D2E/DX2                !
 ! A117  A(7,18,42)             86.164          estimate D2E/DX2                !
 ! A118  A(7,18,62)            132.547          estimate D2E/DX2                !
 ! A119  A(16,18,19)           137.0371         estimate D2E/DX2                !
 ! A120  A(16,18,20)            89.4178         estimate D2E/DX2                !
 ! A121  A(16,18,40)           134.4487         estimate D2E/DX2                !
 ! A122  A(16,18,42)            96.892          estimate D2E/DX2                !
 ! A123  A(16,18,62)            96.9255         estimate D2E/DX2                !
 ! A124  A(19,18,20)            81.3786         estimate D2E/DX2                !
 ! A125  A(19,18,40)            85.8663         estimate D2E/DX2                !
 ! A126  A(19,18,62)           124.855          estimate D2E/DX2                !
 ! A127  A(20,18,40)           116.8442         estimate D2E/DX2                !
 ! A128  A(20,18,62)            90.6152         estimate D2E/DX2                !
 ! A129  A(40,18,42)           128.6496         estimate D2E/DX2                !
 ! A130  A(42,18,62)           140.725          estimate D2E/DX2                !
 ! A131  A(2,21,5)              80.5707         estimate D2E/DX2                !
 ! A132  A(2,21,22)             83.4011         estimate D2E/DX2                !
 ! A133  A(2,21,23)             82.6957         estimate D2E/DX2                !
 ! A134  A(2,21,49)            137.2721         estimate D2E/DX2                !
 ! A135  A(2,21,63)            135.3456         estimate D2E/DX2                !
 ! A136  A(5,21,22)            134.0569         estimate D2E/DX2                !
 ! A137  A(5,21,23)            137.0805         estimate D2E/DX2                !
 ! A138  A(5,21,49)             83.1382         estimate D2E/DX2                !
 ! A139  A(5,21,63)             87.0005         estimate D2E/DX2                !
 ! A140  A(22,21,23)            82.1468         estimate D2E/DX2                !
 ! A141  A(22,21,49)           133.7327         estimate D2E/DX2                !
 ! A142  A(22,21,63)            75.0502         estimate D2E/DX2                !
 ! A143  A(23,21,49)            82.9849         estimate D2E/DX2                !
 ! A144  A(23,21,63)           130.7513         estimate D2E/DX2                !
 ! A145  A(49,21,63)            82.3943         estimate D2E/DX2                !
 ! A146  A(21,22,51)            81.0688         estimate D2E/DX2                !
 ! A147  A(21,22,64)            96.6642         estimate D2E/DX2                !
 ! A148  A(51,22,64)            98.0455         estimate D2E/DX2                !
 ! A149  A(21,23,48)            81.9702         estimate D2E/DX2                !
 ! A150  A(10,24,17)           136.1504         estimate D2E/DX2                !
 ! A151  A(10,24,25)            81.6622         estimate D2E/DX2                !
 ! A152  A(10,24,26)            81.7133         estimate D2E/DX2                !
 ! A153  A(10,24,28)            84.0799         estimate D2E/DX2                !
 ! A154  A(10,24,29)           135.3938         estimate D2E/DX2                !
 ! A155  A(17,24,25)            74.8462         estimate D2E/DX2                !
 ! A156  A(17,24,26)            87.6982         estimate D2E/DX2                !
 ! A157  A(17,24,28)           129.3424         estimate D2E/DX2                !
 ! A158  A(17,24,29)            83.6822         estimate D2E/DX2                !
 ! A159  A(25,24,26)           132.7318         estimate D2E/DX2                !
 ! A160  A(25,24,28)            85.7656         estimate D2E/DX2                !
 ! A161  A(25,24,29)           137.6662         estimate D2E/DX2                !
 ! A162  A(26,24,28)           135.6195         estimate D2E/DX2                !
 ! A163  A(26,24,29)            81.0243         estimate D2E/DX2                !
 ! A164  A(28,24,29)            80.267          estimate D2E/DX2                !
 ! A165  A(24,25,33)            82.4505         estimate D2E/DX2                !
 ! A166  A(24,25,36)            82.1            estimate D2E/DX2                !
 ! A167  A(33,25,36)            93.4267         estimate D2E/DX2                !
 ! A168  A(9,26,13)             82.8276         estimate D2E/DX2                !
 ! A169  A(9,26,24)             81.5402         estimate D2E/DX2                !
 ! A170  A(13,26,24)            82.9626         estimate D2E/DX2                !
 ! A171  A(11,27,15)            80.7249         estimate D2E/DX2                !
 ! A172  A(11,27,28)            82.3681         estimate D2E/DX2                !
 ! A173  A(11,27,29)           132.8372         estimate D2E/DX2                !
 ! A174  A(11,27,30)           131.8179         estimate D2E/DX2                !
 ! A175  A(11,27,55)            82.9519         estimate D2E/DX2                !
 ! A176  A(11,27,56)           136.2361         estimate D2E/DX2                !
 ! A177  A(15,27,28)           134.0059         estimate D2E/DX2                !
 ! A178  A(15,27,29)            79.5484         estimate D2E/DX2                !
 ! A179  A(15,27,30)           128.2128         estimate D2E/DX2                !
 ! A180  A(15,27,55)           135.1512         estimate D2E/DX2                !
 ! A181  A(15,27,56)            84.1001         estimate D2E/DX2                !
 ! A182  A(28,27,29)            81.4281         estimate D2E/DX2                !
 ! A183  A(28,27,55)            84.0074         estimate D2E/DX2                !
 ! A184  A(28,27,56)           134.3739         estimate D2E/DX2                !
 ! A185  A(29,27,55)           138.2752         estimate D2E/DX2                !
 ! A186  A(29,27,56)            83.2977         estimate D2E/DX2                !
 ! A187  A(30,27,55)            93.1401         estimate D2E/DX2                !
 ! A188  A(30,27,56)            89.1146         estimate D2E/DX2                !
 ! A189  A(55,27,56)            79.5274         estimate D2E/DX2                !
 ! A190  A(24,28,27)            83.4551         estimate D2E/DX2                !
 ! A191  A(24,28,30)            80.8261         estimate D2E/DX2                !
 ! A192  A(24,29,27)            83.8315         estimate D2E/DX2                !
 ! A193  A(24,29,30)            82.0604         estimate D2E/DX2                !
 ! A194  A(27,30,31)            98.0637         estimate D2E/DX2                !
 ! A195  A(27,30,32)           138.1676         estimate D2E/DX2                !
 ! A196  A(27,30,33)           125.3826         estimate D2E/DX2                !
 ! A197  A(27,30,34)           129.2228         estimate D2E/DX2                !
 ! A198  A(28,30,29)            83.4085         estimate D2E/DX2                !
 ! A199  A(28,30,31)           107.1904         estimate D2E/DX2                !
 ! A200  A(28,30,32)           138.5332         estimate D2E/DX2                !
 ! A201  A(28,30,33)            88.4593         estimate D2E/DX2                !
 ! A202  A(28,30,34)            79.2501         estimate D2E/DX2                !
 ! A203  A(29,30,31)           129.055          estimate D2E/DX2                !
 ! A204  A(29,30,32)            87.5991         estimate D2E/DX2                !
 ! A205  A(29,30,33)            97.9123         estimate D2E/DX2                !
 ! A206  A(29,30,34)           139.3959         estimate D2E/DX2                !
 ! A207  A(31,30,32)           109.793          estimate D2E/DX2                !
 ! A208  A(31,30,33)           131.1834         estimate D2E/DX2                !
 ! A209  A(31,30,34)            91.2513         estimate D2E/DX2                !
 ! A210  A(32,30,34)            81.8335         estimate D2E/DX2                !
 ! A211  A(30,31,57)            95.0571         estimate D2E/DX2                !
 ! A212  A(17,33,25)            76.9814         estimate D2E/DX2                !
 ! A213  A(17,33,30)            87.3031         estimate D2E/DX2                !
 ! A214  A(17,33,32)            77.3277         estimate D2E/DX2                !
 ! A215  A(17,33,34)           138.8597         estimate D2E/DX2                !
 ! A216  A(17,33,59)           114.1579         estimate D2E/DX2                !
 ! A217  A(25,33,30)            98.4529         estimate D2E/DX2                !
 ! A218  A(25,33,32)           137.6537         estimate D2E/DX2                !
 ! A219  A(25,33,34)            94.0104         estimate D2E/DX2                !
 ! A220  A(25,33,59)           111.4647         estimate D2E/DX2                !
 ! A221  A(30,33,59)           146.0465         estimate D2E/DX2                !
 ! A222  A(32,33,34)            83.9106         estimate D2E/DX2                !
 ! A223  A(32,33,59)           109.5971         estimate D2E/DX2                !
 ! A224  A(34,33,59)           106.5416         estimate D2E/DX2                !
 ! A225  A(17,36,25)            77.1992         estimate D2E/DX2                !
 ! A226  A(17,36,35)           107.0868         estimate D2E/DX2                !
 ! A227  A(17,36,37)           141.4011         estimate D2E/DX2                !
 ! A228  A(17,36,38)            87.7146         estimate D2E/DX2                !
 ! A229  A(17,36,39)           138.5809         estimate D2E/DX2                !
 ! A230  A(25,36,35)           109.2307         estimate D2E/DX2                !
 ! A231  A(25,36,37)            84.8769         estimate D2E/DX2                !
 ! A232  A(25,36,38)           137.8715         estimate D2E/DX2                !
 ! A233  A(25,36,39)           132.9759         estimate D2E/DX2                !
 ! A234  A(35,36,37)           111.052          estimate D2E/DX2                !
 ! A235  A(35,36,38)           112.7864         estimate D2E/DX2                !
 ! A236  A(35,36,39)            90.0532         estimate D2E/DX2                !
 ! A237  A(37,36,38)            83.0864         estimate D2E/DX2                !
 ! A238  A(13,37,36)            81.8754         estimate D2E/DX2                !
 ! A239  A(13,37,39)            85.6678         estimate D2E/DX2                !
 ! A240  A(13,38,36)            81.2608         estimate D2E/DX2                !
 ! A241  A(13,38,39)            82.8215         estimate D2E/DX2                !
 ! A242  A(36,39,40)           151.5796         estimate D2E/DX2                !
 ! A243  A(36,39,41)            95.4945         estimate D2E/DX2                !
 ! A244  A(36,39,62)           145.2386         estimate D2E/DX2                !
 ! A245  A(37,39,38)            86.1478         estimate D2E/DX2                !
 ! A246  A(37,39,40)           100.1139         estimate D2E/DX2                !
 ! A247  A(37,39,41)           116.0879         estimate D2E/DX2                !
 ! A248  A(37,39,62)           135.3103         estimate D2E/DX2                !
 ! A249  A(38,39,40)           133.4179         estimate D2E/DX2                !
 ! A250  A(38,39,41)           116.3176         estimate D2E/DX2                !
 ! A251  A(38,39,62)            93.9317         estimate D2E/DX2                !
 ! A252  A(40,39,41)           102.1992         estimate D2E/DX2                !
 ! A253  A(41,39,62)           103.8108         estimate D2E/DX2                !
 ! A254  A(18,40,39)            87.5573         estimate D2E/DX2                !
 ! A255  A(18,42,43)            86.981          estimate D2E/DX2                !
 ! A256  A(18,42,44)            99.4167         estimate D2E/DX2                !
 ! A257  A(18,42,61)           142.5833         estimate D2E/DX2                !
 ! A258  A(19,42,20)            81.932          estimate D2E/DX2                !
 ! A259  A(19,42,43)           138.6448         estimate D2E/DX2                !
 ! A260  A(19,42,44)            94.5152         estimate D2E/DX2                !
 ! A261  A(19,42,61)           105.7143         estimate D2E/DX2                !
 ! A262  A(20,42,43)            77.1461         estimate D2E/DX2                !
 ! A263  A(20,42,44)           137.2082         estimate D2E/DX2                !
 ! A264  A(20,42,61)           107.5657         estimate D2E/DX2                !
 ! A265  A(43,42,44)            78.1369         estimate D2E/DX2                !
 ! A266  A(43,42,61)           114.4452         estimate D2E/DX2                !
 ! A267  A(44,42,61)           114.3417         estimate D2E/DX2                !
 ! A268  A(6,43,42)             81.6244         estimate D2E/DX2                !
 ! A269  A(6,43,45)             83.0063         estimate D2E/DX2                !
 ! A270  A(42,43,45)            89.3601         estimate D2E/DX2                !
 ! A271  A(6,44,42)             83.0467         estimate D2E/DX2                !
 ! A272  A(6,44,45)             82.4907         estimate D2E/DX2                !
 ! A273  A(42,44,45)            91.9478         estimate D2E/DX2                !
 ! A274  A(3,45,43)             84.4258         estimate D2E/DX2                !
 ! A275  A(3,45,44)            136.7029         estimate D2E/DX2                !
 ! A276  A(3,45,46)             88.4647         estimate D2E/DX2                !
 ! A277  A(3,45,47)            114.5993         estimate D2E/DX2                !
 ! A278  A(43,45,44)            76.8945         estimate D2E/DX2                !
 ! A279  A(43,45,46)           138.8056         estimate D2E/DX2                !
 ! A280  A(43,45,47)           106.041          estimate D2E/DX2                !
 ! A281  A(43,45,48)           136.4103         estimate D2E/DX2                !
 ! A282  A(44,45,46)            81.0517         estimate D2E/DX2                !
 ! A283  A(44,45,47)           108.0401         estimate D2E/DX2                !
 ! A284  A(44,45,48)           132.8014         estimate D2E/DX2                !
 ! A285  A(46,45,47)           113.7488         estimate D2E/DX2                !
 ! A286  A(47,45,48)            94.3361         estimate D2E/DX2                !
 ! A287  A(1,46,45)             80.1596         estimate D2E/DX2                !
 ! A288  A(1,46,48)             79.6733         estimate D2E/DX2                !
 ! A289  A(3,48,23)             81.6024         estimate D2E/DX2                !
 ! A290  A(3,48,46)             86.4443         estimate D2E/DX2                !
 ! A291  A(3,48,49)            137.5984         estimate D2E/DX2                !
 ! A292  A(3,48,50)            118.7982         estimate D2E/DX2                !
 ! A293  A(23,48,45)           132.1075         estimate D2E/DX2                !
 ! A294  A(23,48,46)           136.8816         estimate D2E/DX2                !
 ! A295  A(23,48,49)            80.4135         estimate D2E/DX2                !
 ! A296  A(23,48,50)           102.7651         estimate D2E/DX2                !
 ! A297  A(45,48,49)           131.7287         estimate D2E/DX2                !
 ! A298  A(45,48,50)           102.3235         estimate D2E/DX2                !
 ! A299  A(46,48,49)            81.1492         estimate D2E/DX2                !
 ! A300  A(46,48,50)           119.1689         estimate D2E/DX2                !
 ! A301  A(49,48,50)           102.5291         estimate D2E/DX2                !
 ! A302  A(21,49,48)            81.9782         estimate D2E/DX2                !
 ! A303  A(14,51,22)            81.6068         estimate D2E/DX2                !
 ! A304  A(14,51,52)            88.2734         estimate D2E/DX2                !
 ! A305  A(14,51,60)           118.8949         estimate D2E/DX2                !
 ! A306  A(14,51,63)           138.7976         estimate D2E/DX2                !
 ! A307  A(22,51,52)           138.4834         estimate D2E/DX2                !
 ! A308  A(22,51,54)           133.1364         estimate D2E/DX2                !
 ! A309  A(22,51,60)            99.2314         estimate D2E/DX2                !
 ! A310  A(22,51,63)            76.5238         estimate D2E/DX2                !
 ! A311  A(52,51,60)           120.6219         estimate D2E/DX2                !
 ! A312  A(52,51,63)            85.6246         estimate D2E/DX2                !
 ! A313  A(54,51,60)           103.7008         estimate D2E/DX2                !
 ! A314  A(54,51,63)           137.2741         estimate D2E/DX2                !
 ! A315  A(60,51,63)            98.9588         estimate D2E/DX2                !
 ! A316  A(12,52,51)            80.929          estimate D2E/DX2                !
 ! A317  A(12,54,51)            62.9027         estimate D2E/DX2                !
 ! A318  A(12,54,53)           146.7528         estimate D2E/DX2                !
 ! A319  A(12,54,55)            93.5794         estimate D2E/DX2                !
 ! A320  A(12,54,56)            93.6537         estimate D2E/DX2                !
 ! A321  A(12,54,57)           120.3195         estimate D2E/DX2                !
 ! A322  A(14,54,52)            86.9848         estimate D2E/DX2                !
 ! A323  A(14,54,53)           106.6864         estimate D2E/DX2                !
 ! A324  A(14,54,55)           142.9414         estimate D2E/DX2                !
 ! A325  A(14,54,56)            83.296          estimate D2E/DX2                !
 ! A326  A(14,54,57)           131.47           estimate D2E/DX2                !
 ! A327  A(51,54,53)            83.8503         estimate D2E/DX2                !
 ! A328  A(51,54,55)           132.913          estimate D2E/DX2                !
 ! A329  A(51,54,56)           134.0246         estimate D2E/DX2                !
 ! A330  A(52,54,53)           106.4848         estimate D2E/DX2                !
 ! A331  A(52,54,55)            82.3191         estimate D2E/DX2                !
 ! A332  A(52,54,56)           142.5086         estimate D2E/DX2                !
 ! A333  A(52,54,57)           129.8412         estimate D2E/DX2                !
 ! A334  A(53,54,55)           110.3699         estimate D2E/DX2                !
 ! A335  A(53,54,56)           110.9959         estimate D2E/DX2                !
 ! A336  A(53,54,57)            92.9204         estimate D2E/DX2                !
 ! A337  A(55,54,56)            83.99           estimate D2E/DX2                !
 ! A338  A(27,55,54)            77.4906         estimate D2E/DX2                !
 ! A339  A(27,55,57)            79.3126         estimate D2E/DX2                !
 ! A340  A(27,56,54)            78.9083         estimate D2E/DX2                !
 ! A341  A(27,56,57)            80.2682         estimate D2E/DX2                !
 ! A342  A(31,57,54)           158.6109         estimate D2E/DX2                !
 ! A343  A(31,57,55)           110.2344         estimate D2E/DX2                !
 ! A344  A(31,57,56)           122.5919         estimate D2E/DX2                !
 ! A345  A(31,57,58)           106.403          estimate D2E/DX2                !
 ! A346  A(54,57,58)            93.6277         estimate D2E/DX2                !
 ! A347  A(55,57,56)            92.3022         estimate D2E/DX2                !
 ! A348  A(55,57,58)           112.9384         estimate D2E/DX2                !
 ! A349  A(56,57,58)           111.9322         estimate D2E/DX2                !
 ! A350  A(18,62,39)            87.8151         estimate D2E/DX2                !
 ! A351  A(21,63,51)            82.1317         estimate D2E/DX2                !
 ! A352  A(21,63,65)           103.2944         estimate D2E/DX2                !
 ! A353  A(51,63,65)           105.8129         estimate D2E/DX2                !
 ! A354  L(51,54,57,12,-1)     183.2222         estimate D2E/DX2                !
 ! A355  L(51,54,57,12,-2)     181.0981         estimate D2E/DX2                !
 ! D1    D(3,1,2,12)          -179.7108         estimate D2E/DX2                !
 ! D2    D(3,1,2,21)            95.3448         estimate D2E/DX2                !
 ! D3    D(4,1,2,12)           -27.8425         estimate D2E/DX2                !
 ! D4    D(4,1,2,21)          -112.787          estimate D2E/DX2                !
 ! D5    D(5,1,2,12)            41.9388         estimate D2E/DX2                !
 ! D6    D(5,1,2,21)           -43.0056         estimate D2E/DX2                !
 ! D7    D(8,1,2,12)           -97.6778         estimate D2E/DX2                !
 ! D8    D(8,1,2,21)           177.3778         estimate D2E/DX2                !
 ! D9    D(46,1,2,12)          110.2244         estimate D2E/DX2                !
 ! D10   D(46,1,2,21)           25.28           estimate D2E/DX2                !
 ! D11   D(2,1,3,45)          -175.5273         estimate D2E/DX2                !
 ! D12   D(2,1,3,48)           -96.5579         estimate D2E/DX2                !
 ! D13   D(4,1,3,45)            32.148          estimate D2E/DX2                !
 ! D14   D(4,1,3,48)           111.1174         estimate D2E/DX2                !
 ! D15   D(5,1,3,45)          -107.4135         estimate D2E/DX2                !
 ! D16   D(5,1,3,48)           -28.4441         estimate D2E/DX2                !
 ! D17   D(8,1,3,45)           101.2035         estimate D2E/DX2                !
 ! D18   D(8,1,3,48)          -179.8271         estimate D2E/DX2                !
 ! D19   D(46,1,3,45)          -38.4344         estimate D2E/DX2                !
 ! D20   D(46,1,3,48)           40.535          estimate D2E/DX2                !
 ! D21   D(2,1,4,6)           -111.0384         estimate D2E/DX2                !
 ! D22   D(2,1,4,9)            -27.936          estimate D2E/DX2                !
 ! D23   D(3,1,4,6)             27.781          estimate D2E/DX2                !
 ! D24   D(3,1,4,9)            110.8834         estimate D2E/DX2                !
 ! D25   D(5,1,4,6)           -179.6723         estimate D2E/DX2                !
 ! D26   D(5,1,4,9)            -96.5698         estimate D2E/DX2                !
 ! D27   D(8,1,4,6)            -41.0273         estimate D2E/DX2                !
 ! D28   D(8,1,4,9)             42.0751         estimate D2E/DX2                !
 ! D29   D(46,1,4,6)            97.7933         estimate D2E/DX2                !
 ! D30   D(46,1,4,9)          -179.1043         estimate D2E/DX2                !
 ! D31   D(2,1,5,12)           -42.0885         estimate D2E/DX2                !
 ! D32   D(2,1,5,21)            42.7717         estimate D2E/DX2                !
 ! D33   D(3,1,5,12)          -111.0906         estimate D2E/DX2                !
 ! D34   D(3,1,5,21)           -26.2305         estimate D2E/DX2                !
 ! D35   D(4,1,5,12)            96.5406         estimate D2E/DX2                !
 ! D36   D(4,1,5,21)          -178.5993         estimate D2E/DX2                !
 ! D37   D(8,1,5,12)            25.8244         estimate D2E/DX2                !
 ! D38   D(8,1,5,21)           110.6845         estimate D2E/DX2                !
 ! D39   D(46,1,5,12)         -179.8727         estimate D2E/DX2                !
 ! D40   D(46,1,5,21)          -95.0125         estimate D2E/DX2                !
 ! D41   D(2,1,8,6)            179.445          estimate D2E/DX2                !
 ! D42   D(2,1,8,9)             96.5813         estimate D2E/DX2                !
 ! D43   D(3,1,8,6)            -96.9289         estimate D2E/DX2                !
 ! D44   D(3,1,8,9)           -179.7927         estimate D2E/DX2                !
 ! D45   D(4,1,8,6)             41.0033         estimate D2E/DX2                !
 ! D46   D(4,1,8,9)            -41.8605         estimate D2E/DX2                !
 ! D47   D(5,1,8,6)            112.2771         estimate D2E/DX2                !
 ! D48   D(5,1,8,9)             29.4133         estimate D2E/DX2                !
 ! D49   D(46,1,8,6)           -29.4603         estimate D2E/DX2                !
 ! D50   D(46,1,8,9)          -112.3241         estimate D2E/DX2                !
 ! D51   D(2,1,46,45)          108.9911         estimate D2E/DX2                !
 ! D52   D(2,1,46,48)           29.9161         estimate D2E/DX2                !
 ! D53   D(3,1,46,45)           38.4148         estimate D2E/DX2                !
 ! D54   D(3,1,46,48)          -40.6602         estimate D2E/DX2                !
 ! D55   D(4,1,46,45)          -99.1223         estimate D2E/DX2                !
 ! D56   D(4,1,46,48)         -178.1973         estimate D2E/DX2                !
 ! D57   D(5,1,46,45)          176.678          estimate D2E/DX2                !
 ! D58   D(5,1,46,48)           97.603          estimate D2E/DX2                !
 ! D59   D(8,1,46,45)          -29.0117         estimate D2E/DX2                !
 ! D60   D(8,1,46,48)         -108.0867         estimate D2E/DX2                !
 ! D61   D(1,2,12,5)           -41.9293         estimate D2E/DX2                !
 ! D62   D(1,2,12,11)           27.4104         estimate D2E/DX2                !
 ! D63   D(1,2,12,14)         -179.1382         estimate D2E/DX2                !
 ! D64   D(1,2,12,15)           96.8259         estimate D2E/DX2                !
 ! D65   D(1,2,12,52)         -109.2912         estimate D2E/DX2                !
 ! D66   D(1,2,12,54)         -177.2967         estimate D2E/DX2                !
 ! D67   D(21,2,12,5)           40.6216         estimate D2E/DX2                !
 ! D68   D(21,2,12,11)         109.9614         estimate D2E/DX2                !
 ! D69   D(21,2,12,14)         -96.5872         estimate D2E/DX2                !
 ! D70   D(21,2,12,15)         179.3768         estimate D2E/DX2                !
 ! D71   D(21,2,12,52)         -26.7403         estimate D2E/DX2                !
 ! D72   D(21,2,12,54)         -94.7458         estimate D2E/DX2                !
 ! D73   D(1,2,21,5)            42.9938         estimate D2E/DX2                !
 ! D74   D(1,2,21,22)          179.7805         estimate D2E/DX2                !
 ! D75   D(1,2,21,23)          -97.3334         estimate D2E/DX2                !
 ! D76   D(1,2,21,49)          -26.0109         estimate D2E/DX2                !
 ! D77   D(1,2,21,63)          118.8969         estimate D2E/DX2                !
 ! D78   D(12,2,21,5)          -40.6198         estimate D2E/DX2                !
 ! D79   D(12,2,21,22)          96.1669         estimate D2E/DX2                !
 ! D80   D(12,2,21,23)         179.053          estimate D2E/DX2                !
 ! D81   D(12,2,21,49)        -109.6244         estimate D2E/DX2                !
 ! D82   D(12,2,21,63)          35.2833         estimate D2E/DX2                !
 ! D83   D(1,3,45,43)          -98.2553         estimate D2E/DX2                !
 ! D84   D(1,3,45,44)          -34.0906         estimate D2E/DX2                !
 ! D85   D(1,3,45,46)           41.1157         estimate D2E/DX2                !
 ! D86   D(1,3,45,47)          156.635          estimate D2E/DX2                !
 ! D87   D(1,3,48,23)           95.8311         estimate D2E/DX2                !
 ! D88   D(1,3,48,46)          -42.6251         estimate D2E/DX2                !
 ! D89   D(1,3,48,49)           30.1178         estimate D2E/DX2                !
 ! D90   D(1,3,48,50)         -164.1647         estimate D2E/DX2                !
 ! D91   D(1,4,6,7)            178.6295         estimate D2E/DX2                !
 ! D92   D(1,4,6,8)             40.914          estimate D2E/DX2                !
 ! D93   D(1,4,6,16)           107.7278         estimate D2E/DX2                !
 ! D94   D(1,4,6,43)           -37.0533         estimate D2E/DX2                !
 ! D95   D(1,4,6,44)           -95.6872         estimate D2E/DX2                !
 ! D96   D(9,4,6,7)             95.7601         estimate D2E/DX2                !
 ! D97   D(9,4,6,8)            -41.9553         estimate D2E/DX2                !
 ! D98   D(9,4,6,16)            24.8584         estimate D2E/DX2                !
 ! D99   D(9,4,6,43)          -119.9227         estimate D2E/DX2                !
 ! D100  D(9,4,6,44)          -178.5565         estimate D2E/DX2                !
 ! D101  D(1,4,9,8)            -41.3808         estimate D2E/DX2                !
 ! D102  D(1,4,9,10)          -178.7555         estimate D2E/DX2                !
 ! D103  D(1,4,9,11)            96.3408         estimate D2E/DX2                !
 ! D104  D(1,4,9,15)            28.494          estimate D2E/DX2                !
 ! D105  D(1,4,9,26)          -110.532          estimate D2E/DX2                !
 ! D106  D(6,4,9,8)             41.3786         estimate D2E/DX2                !
 ! D107  D(6,4,9,10)           -95.9961         estimate D2E/DX2                !
 ! D108  D(6,4,9,11)           179.1002         estimate D2E/DX2                !
 ! D109  D(6,4,9,15)           111.2534         estimate D2E/DX2                !
 ! D110  D(6,4,9,26)           -27.7726         estimate D2E/DX2                !
 ! D111  D(1,5,12,2)            41.9153         estimate D2E/DX2                !
 ! D112  D(1,5,12,11)          -95.9168         estimate D2E/DX2                !
 ! D113  D(1,5,12,14)          109.5231         estimate D2E/DX2                !
 ! D114  D(1,5,12,15)          -25.8309         estimate D2E/DX2                !
 ! D115  D(1,5,12,52)          179.0378         estimate D2E/DX2                !
 ! D116  D(1,5,12,54)          177.3799         estimate D2E/DX2                !
 ! D117  D(21,5,12,2)          -40.3844         estimate D2E/DX2                !
 ! D118  D(21,5,12,11)        -178.2165         estimate D2E/DX2                !
 ! D119  D(21,5,12,14)          27.2233         estimate D2E/DX2                !
 ! D120  D(21,5,12,15)        -108.1306         estimate D2E/DX2                !
 ! D121  D(21,5,12,52)          96.7381         estimate D2E/DX2                !
 ! D122  D(21,5,12,54)          95.0802         estimate D2E/DX2                !
 ! D123  D(1,5,21,2)           -43.0317         estimate D2E/DX2                !
 ! D124  D(1,5,21,22)         -114.1997         estimate D2E/DX2                !
 ! D125  D(1,5,21,23)           25.3848         estimate D2E/DX2                !
 ! D126  D(1,5,21,49)           97.3225         estimate D2E/DX2                !
 ! D127  D(1,5,21,63)         -179.9846         estimate D2E/DX2                !
 ! D128  D(12,5,21,2)           40.7888         estimate D2E/DX2                !
 ! D129  D(12,5,21,22)         -30.3793         estimate D2E/DX2                !
 ! D130  D(12,5,21,23)         109.2052         estimate D2E/DX2                !
 ! D131  D(12,5,21,49)        -178.8571         estimate D2E/DX2                !
 ! D132  D(12,5,21,63)         -96.1642         estimate D2E/DX2                !
 ! D133  D(4,6,7,13)           -96.5904         estimate D2E/DX2                !
 ! D134  D(4,6,7,18)          -179.5821         estimate D2E/DX2                !
 ! D135  D(8,6,7,13)           -24.1599         estimate D2E/DX2                !
 ! D136  D(8,6,7,18)          -107.1515         estimate D2E/DX2                !
 ! D137  D(16,6,7,13)           41.1848         estimate D2E/DX2                !
 ! D138  D(16,6,7,18)          -41.8069         estimate D2E/DX2                !
 ! D139  D(43,6,7,13)          115.015          estimate D2E/DX2                !
 ! D140  D(43,6,7,18)           32.0234         estimate D2E/DX2                !
 ! D141  D(44,6,7,13)         -178.5029         estimate D2E/DX2                !
 ! D142  D(44,6,7,18)           98.5054         estimate D2E/DX2                !
 ! D143  D(4,6,8,1)            -41.2622         estimate D2E/DX2                !
 ! D144  D(4,6,8,9)             41.7878         estimate D2E/DX2                !
 ! D145  D(7,6,8,1)           -114.6043         estimate D2E/DX2                !
 ! D146  D(7,6,8,9)            -31.5542         estimate D2E/DX2                !
 ! D147  D(16,6,8,1)           179.7004         estimate D2E/DX2                !
 ! D148  D(16,6,8,9)           -97.2495         estimate D2E/DX2                !
 ! D149  D(43,6,8,1)            95.8288         estimate D2E/DX2                !
 ! D150  D(43,6,8,9)           178.8789         estimate D2E/DX2                !
 ! D151  D(44,6,8,1)            28.7718         estimate D2E/DX2                !
 ! D152  D(44,6,8,9)           111.8219         estimate D2E/DX2                !
 ! D153  D(4,6,16,13)           31.1021         estimate D2E/DX2                !
 ! D154  D(4,6,16,18)          115.8591         estimate D2E/DX2                !
 ! D155  D(7,6,16,13)          -41.14           estimate D2E/DX2                !
 ! D156  D(7,6,16,18)           43.617          estimate D2E/DX2                !
 ! D157  D(8,6,16,13)           98.6905         estimate D2E/DX2                !
 ! D158  D(8,6,16,18)         -176.5524         estimate D2E/DX2                !
 ! D159  D(43,6,16,13)        -172.7043         estimate D2E/DX2                !
 ! D160  D(43,6,16,18)         -87.9472         estimate D2E/DX2                !
 ! D161  D(44,6,16,13)        -112.9549         estimate D2E/DX2                !
 ! D162  D(44,6,16,18)         -28.1978         estimate D2E/DX2                !
 ! D163  D(4,6,43,42)         -105.1831         estimate D2E/DX2                !
 ! D164  D(4,6,43,45)          -14.7999         estimate D2E/DX2                !
 ! D165  D(7,6,43,42)           26.2387         estimate D2E/DX2                !
 ! D166  D(7,6,43,45)          116.6219         estimate D2E/DX2                !
 ! D167  D(8,6,43,42)          179.0251         estimate D2E/DX2                !
 ! D168  D(8,6,43,45)          -90.5917         estimate D2E/DX2                !
 ! D169  D(16,6,43,42)          98.8686         estimate D2E/DX2                !
 ! D170  D(16,6,43,45)        -170.7482         estimate D2E/DX2                !
 ! D171  D(44,6,43,42)         -44.4357         estimate D2E/DX2                !
 ! D172  D(44,6,43,45)          45.9476         estimate D2E/DX2                !
 ! D173  D(4,6,44,42)         -171.1095         estimate D2E/DX2                !
 ! D174  D(4,6,44,45)           95.9893         estimate D2E/DX2                !
 ! D175  D(7,6,44,42)          -86.0945         estimate D2E/DX2                !
 ! D176  D(7,6,44,45)         -178.9957         estimate D2E/DX2                !
 ! D177  D(8,6,44,42)          118.649          estimate D2E/DX2                !
 ! D178  D(8,6,44,45)           25.7479         estimate D2E/DX2                !
 ! D179  D(16,6,44,42)         -15.7416         estimate D2E/DX2                !
 ! D180  D(16,6,44,45)        -108.6427         estimate D2E/DX2                !
 ! D181  D(43,6,44,42)          46.7376         estimate D2E/DX2                !
 ! D182  D(43,6,44,45)         -46.1635         estimate D2E/DX2                !
 ! D183  D(6,7,13,10)           95.6191         estimate D2E/DX2                !
 ! D184  D(6,7,13,16)          -40.9577         estimate D2E/DX2                !
 ! D185  D(6,7,13,26)           26.7497         estimate D2E/DX2                !
 ! D186  D(6,7,13,37)         -176.834          estimate D2E/DX2                !
 ! D187  D(6,7,13,38)         -113.1296         estimate D2E/DX2                !
 ! D188  D(18,7,13,10)         177.8673         estimate D2E/DX2                !
 ! D189  D(18,7,13,16)          41.2905         estimate D2E/DX2                !
 ! D190  D(18,7,13,26)         108.9979         estimate D2E/DX2                !
 ! D191  D(18,7,13,37)         -94.5858         estimate D2E/DX2                !
 ! D192  D(18,7,13,38)         -30.8814         estimate D2E/DX2                !
 ! D193  D(6,7,18,16)           42.1437         estimate D2E/DX2                !
 ! D194  D(6,7,18,19)         -100.5704         estimate D2E/DX2                !
 ! D195  D(6,7,18,20)          -35.7366         estimate D2E/DX2                !
 ! D196  D(6,7,18,40)          175.7766         estimate D2E/DX2                !
 ! D197  D(6,7,18,42)          -55.6104         estimate D2E/DX2                !
 ! D198  D(6,7,18,62)          131.8324         estimate D2E/DX2                !
 ! D199  D(13,7,18,16)         -41.8537         estimate D2E/DX2                !
 ! D200  D(13,7,18,19)         175.4322         estimate D2E/DX2                !
 ! D201  D(13,7,18,20)        -119.734          estimate D2E/DX2                !
 ! D202  D(13,7,18,40)          91.7792         estimate D2E/DX2                !
 ! D203  D(13,7,18,42)        -139.6078         estimate D2E/DX2                !
 ! D204  D(13,7,18,62)          47.835          estimate D2E/DX2                !
 ! D205  D(1,8,9,4)             41.7621         estimate D2E/DX2                !
 ! D206  D(1,8,9,10)           111.7724         estimate D2E/DX2                !
 ! D207  D(1,8,9,11)           -27.9411         estimate D2E/DX2                !
 ! D208  D(1,8,9,15)           -96.2066         estimate D2E/DX2                !
 ! D209  D(1,8,9,26)          -179.3129         estimate D2E/DX2                !
 ! D210  D(6,8,9,4)            -41.4268         estimate D2E/DX2                !
 ! D211  D(6,8,9,10)            28.5835         estimate D2E/DX2                !
 ! D212  D(6,8,9,11)          -111.13           estimate D2E/DX2                !
 ! D213  D(6,8,9,15)          -179.3956         estimate D2E/DX2                !
 ! D214  D(6,8,9,26)            97.4982         estimate D2E/DX2                !
 ! D215  D(4,9,10,13)           97.8266         estimate D2E/DX2                !
 ! D216  D(4,9,10,24)         -178.7472         estimate D2E/DX2                !
 ! D217  D(8,9,10,13)           28.5378         estimate D2E/DX2                !
 ! D218  D(8,9,10,24)          111.9639         estimate D2E/DX2                !
 ! D219  D(11,9,10,13)        -179.0            estimate D2E/DX2                !
 ! D220  D(11,9,10,24)         -95.5738         estimate D2E/DX2                !
 ! D221  D(15,9,10,13)        -109.7552         estimate D2E/DX2                !
 ! D222  D(15,9,10,24)         -26.329          estimate D2E/DX2                !
 ! D223  D(26,9,10,13)         -41.1569         estimate D2E/DX2                !
 ! D224  D(26,9,10,24)          42.2692         estimate D2E/DX2                !
 ! D225  D(4,9,11,12)          -97.239          estimate D2E/DX2                !
 ! D226  D(4,9,11,27)         -179.4515         estimate D2E/DX2                !
 ! D227  D(8,9,11,12)          -28.2105         estimate D2E/DX2                !
 ! D228  D(8,9,11,27)         -110.4231         estimate D2E/DX2                !
 ! D229  D(10,9,11,12)         179.4737         estimate D2E/DX2                !
 ! D230  D(10,9,11,27)          97.2612         estimate D2E/DX2                !
 ! D231  D(15,9,11,12)          41.0769         estimate D2E/DX2                !
 ! D232  D(15,9,11,27)         -41.1357         estimate D2E/DX2                !
 ! D233  D(26,9,11,12)         109.3506         estimate D2E/DX2                !
 ! D234  D(26,9,11,27)          27.138          estimate D2E/DX2                !
 ! D235  D(4,9,15,12)           27.5437         estimate D2E/DX2                !
 ! D236  D(4,9,15,27)          109.704          estimate D2E/DX2                !
 ! D237  D(8,9,15,12)           96.6613         estimate D2E/DX2                !
 ! D238  D(8,9,15,27)          178.8216         estimate D2E/DX2                !
 ! D239  D(10,9,15,12)        -111.979          estimate D2E/DX2                !
 ! D240  D(10,9,15,27)         -29.8187         estimate D2E/DX2                !
 ! D241  D(11,9,15,12)         -41.2276         estimate D2E/DX2                !
 ! D242  D(11,9,15,27)          40.9327         estimate D2E/DX2                !
 ! D243  D(26,9,15,12)        -179.9281         estimate D2E/DX2                !
 ! D244  D(26,9,15,27)         -97.7678         estimate D2E/DX2                !
 ! D245  D(4,9,26,13)          -27.4185         estimate D2E/DX2                !
 ! D246  D(4,9,26,24)         -111.3265         estimate D2E/DX2                !
 ! D247  D(8,9,26,13)          -95.8982         estimate D2E/DX2                !
 ! D248  D(8,9,26,24)         -179.8062         estimate D2E/DX2                !
 ! D249  D(10,9,26,13)          41.5761         estimate D2E/DX2                !
 ! D250  D(10,9,26,24)         -42.3319         estimate D2E/DX2                !
 ! D251  D(11,9,26,13)         113.0465         estimate D2E/DX2                !
 ! D252  D(11,9,26,24)          29.1385         estimate D2E/DX2                !
 ! D253  D(15,9,26,13)        -179.5104         estimate D2E/DX2                !
 ! D254  D(15,9,26,24)          96.5816         estimate D2E/DX2                !
 ! D255  D(9,10,13,7)          -97.0442         estimate D2E/DX2                !
 ! D256  D(9,10,13,16)         -28.0438         estimate D2E/DX2                !
 ! D257  D(9,10,13,26)          41.6442         estimate D2E/DX2                !
 ! D258  D(9,10,13,37)         178.8439         estimate D2E/DX2                !
 ! D259  D(9,10,13,38)         110.86           estimate D2E/DX2                !
 ! D260  D(24,10,13,7)        -179.2892         estimate D2E/DX2                !
 ! D261  D(24,10,13,16)       -110.2887         estimate D2E/DX2                !
 ! D262  D(24,10,13,26)        -40.6008         estimate D2E/DX2                !
 ! D263  D(24,10,13,37)         96.5989         estimate D2E/DX2                !
 ! D264  D(24,10,13,38)         28.615          estimate D2E/DX2                !
 ! D265  D(9,10,24,17)        -120.5765         estimate D2E/DX2                !
 ! D266  D(9,10,24,25)        -178.3046         estimate D2E/DX2                !
 ! D267  D(9,10,24,26)         -42.7107         estimate D2E/DX2                !
 ! D268  D(9,10,24,28)          95.1253         estimate D2E/DX2                !
 ! D269  D(9,10,24,29)          25.4393         estimate D2E/DX2                !
 ! D270  D(13,10,24,17)        -37.3256         estimate D2E/DX2                !
 ! D271  D(13,10,24,25)        -95.0537         estimate D2E/DX2                !
 ! D272  D(13,10,24,26)         40.5402         estimate D2E/DX2                !
 ! D273  D(13,10,24,28)        178.3762         estimate D2E/DX2                !
 ! D274  D(13,10,24,29)        108.6902         estimate D2E/DX2                !
 ! D275  D(9,11,12,2)           27.9735         estimate D2E/DX2                !
 ! D276  D(9,11,12,5)           96.2314         estimate D2E/DX2                !
 ! D277  D(9,11,12,14)        -111.2389         estimate D2E/DX2                !
 ! D278  D(9,11,12,15)         -41.651          estimate D2E/DX2                !
 ! D279  D(9,11,12,52)         177.8376         estimate D2E/DX2                !
 ! D280  D(9,11,12,54)        -133.4452         estimate D2E/DX2                !
 ! D281  D(27,11,12,2)         112.4483         estimate D2E/DX2                !
 ! D282  D(27,11,12,5)        -179.2938         estimate D2E/DX2                !
 ! D283  D(27,11,12,14)        -26.7641         estimate D2E/DX2                !
 ! D284  D(27,11,12,15)         42.8238         estimate D2E/DX2                !
 ! D285  D(27,11,12,52)        -97.6876         estimate D2E/DX2                !
 ! D286  D(27,11,12,54)        -48.9704         estimate D2E/DX2                !
 ! D287  D(9,11,27,15)          41.2513         estimate D2E/DX2                !
 ! D288  D(9,11,27,28)         -95.8122         estimate D2E/DX2                !
 ! D289  D(9,11,27,29)         -25.0399         estimate D2E/DX2                !
 ! D290  D(9,11,27,30)         -92.7682         estimate D2E/DX2                !
 ! D291  D(9,11,27,55)         179.3266         estimate D2E/DX2                !
 ! D292  D(9,11,27,56)         112.5224         estimate D2E/DX2                !
 ! D293  D(12,11,27,15)        -42.346          estimate D2E/DX2                !
 ! D294  D(12,11,27,28)       -179.4096         estimate D2E/DX2                !
 ! D295  D(12,11,27,29)       -108.6372         estimate D2E/DX2                !
 ! D296  D(12,11,27,30)       -176.3656         estimate D2E/DX2                !
 ! D297  D(12,11,27,55)         95.7293         estimate D2E/DX2                !
 ! D298  D(12,11,27,56)         28.9251         estimate D2E/DX2                !
 ! D299  D(2,12,14,51)          98.9285         estimate D2E/DX2                !
 ! D300  D(5,12,14,51)          31.7877         estimate D2E/DX2                !
 ! D301  D(11,12,14,51)       -109.1395         estimate D2E/DX2                !
 ! D302  D(15,12,14,51)       -178.1751         estimate D2E/DX2                !
 ! D303  D(52,12,14,51)        -37.395          estimate D2E/DX2                !
 ! D304  D(2,12,15,9)          -95.9899         estimate D2E/DX2                !
 ! D305  D(2,12,15,27)         179.7742         estimate D2E/DX2                !
 ! D306  D(5,12,15,9)          -28.9792         estimate D2E/DX2                !
 ! D307  D(5,12,15,27)        -113.215          estimate D2E/DX2                !
 ! D308  D(11,12,15,9)          41.6425         estimate D2E/DX2                !
 ! D309  D(11,12,15,27)        -42.5934         estimate D2E/DX2                !
 ! D310  D(14,12,15,9)        -178.0397         estimate D2E/DX2                !
 ! D311  D(14,12,15,27)         97.7245         estimate D2E/DX2                !
 ! D312  D(52,12,15,9)         112.6398         estimate D2E/DX2                !
 ! D313  D(52,12,15,27)         28.4039         estimate D2E/DX2                !
 ! D314  D(54,12,15,9)         133.5054         estimate D2E/DX2                !
 ! D315  D(54,12,15,27)         49.2696         estimate D2E/DX2                !
 ! D316  D(2,12,52,51)         -32.168          estimate D2E/DX2                !
 ! D317  D(5,12,52,51)         -99.1535         estimate D2E/DX2                !
 ! D318  D(11,12,52,51)        177.2257         estimate D2E/DX2                !
 ! D319  D(14,12,52,51)         37.4378         estimate D2E/DX2                !
 ! D320  D(15,12,52,51)        107.1691         estimate D2E/DX2                !
 ! D321  D(2,12,54,51)          57.4071         estimate D2E/DX2                !
 ! D322  D(2,12,54,53)          57.6411         estimate D2E/DX2                !
 ! D323  D(2,12,54,55)        -165.3423         estimate D2E/DX2                !
 ! D324  D(2,12,54,56)         -81.1463         estimate D2E/DX2                !
 ! D325  D(2,12,54,57)        -123.691          estimate D2E/DX2                !
 ! D326  D(5,12,54,51)         -57.5422         estimate D2E/DX2                !
 ! D327  D(5,12,54,53)         -57.3082         estimate D2E/DX2                !
 ! D328  D(5,12,54,55)          79.7083         estimate D2E/DX2                !
 ! D329  D(5,12,54,56)         163.9043         estimate D2E/DX2                !
 ! D330  D(5,12,54,57)         121.3597         estimate D2E/DX2                !
 ! D331  D(11,12,54,51)       -139.9134         estimate D2E/DX2                !
 ! D332  D(11,12,54,53)       -139.6794         estimate D2E/DX2                !
 ! D333  D(11,12,54,55)         -2.6628         estimate D2E/DX2                !
 ! D334  D(11,12,54,56)         81.5332         estimate D2E/DX2                !
 ! D335  D(11,12,54,57)         38.9885         estimate D2E/DX2                !
 ! D336  D(15,12,54,51)        138.6081         estimate D2E/DX2                !
 ! D337  D(15,12,54,53)        138.8421         estimate D2E/DX2                !
 ! D338  D(15,12,54,55)        -84.1414         estimate D2E/DX2                !
 ! D339  D(15,12,54,56)          0.0546         estimate D2E/DX2                !
 ! D340  D(15,12,54,57)        -42.49           estimate D2E/DX2                !
 ! D341  D(7,13,16,6)           41.1947         estimate D2E/DX2                !
 ! D342  D(7,13,16,18)         -43.1174         estimate D2E/DX2                !
 ! D343  D(10,13,16,6)         -28.3505         estimate D2E/DX2                !
 ! D344  D(10,13,16,18)       -112.6626         estimate D2E/DX2                !
 ! D345  D(26,13,16,6)         -97.9318         estimate D2E/DX2                !
 ! D346  D(26,13,16,18)        177.7561         estimate D2E/DX2                !
 ! D347  D(37,13,16,6)         113.2764         estimate D2E/DX2                !
 ! D348  D(37,13,16,18)         28.9643         estimate D2E/DX2                !
 ! D349  D(38,13,16,6)         179.6964         estimate D2E/DX2                !
 ! D350  D(38,13,16,18)         95.3843         estimate D2E/DX2                !
 ! D351  D(7,13,26,9)           27.4373         estimate D2E/DX2                !
 ! D352  D(7,13,26,24)         109.7442         estimate D2E/DX2                !
 ! D353  D(10,13,26,9)         -41.6857         estimate D2E/DX2                !
 ! D354  D(10,13,26,24)         40.6211         estimate D2E/DX2                !
 ! D355  D(16,13,26,9)          94.786          estimate D2E/DX2                !
 ! D356  D(16,13,26,24)        177.0929         estimate D2E/DX2                !
 ! D357  D(37,13,26,9)        -117.8617         estimate D2E/DX2                !
 ! D358  D(37,13,26,24)        -35.5548         estimate D2E/DX2                !
 ! D359  D(38,13,26,9)        -179.391          estimate D2E/DX2                !
 ! D360  D(38,13,26,24)        -97.0842         estimate D2E/DX2                !
 ! D361  D(7,13,37,36)        -177.1941         estimate D2E/DX2                !
 ! D362  D(7,13,37,39)         102.1874         estimate D2E/DX2                !
 ! D363  D(10,13,37,36)        -94.8797         estimate D2E/DX2                !
 ! D364  D(10,13,37,39)       -175.4982         estimate D2E/DX2                !
 ! D365  D(16,13,37,36)        111.9764         estimate D2E/DX2                !
 ! D366  D(16,13,37,39)         31.3579         estimate D2E/DX2                !
 ! D367  D(26,13,37,36)        -20.8179         estimate D2E/DX2                !
 ! D368  D(26,13,37,39)       -101.4364         estimate D2E/DX2                !
 ! D369  D(38,13,37,36)         42.4399         estimate D2E/DX2                !
 ! D370  D(38,13,37,39)        -38.1786         estimate D2E/DX2                !
 ! D371  D(7,13,38,36)        -108.5517         estimate D2E/DX2                !
 ! D372  D(7,13,38,39)         -29.9679         estimate D2E/DX2                !
 ! D373  D(10,13,38,36)         29.4801         estimate D2E/DX2                !
 ! D374  D(10,13,38,39)        108.0638         estimate D2E/DX2                !
 ! D375  D(16,13,38,36)       -179.1798         estimate D2E/DX2                !
 ! D376  D(16,13,38,39)       -100.596          estimate D2E/DX2                !
 ! D377  D(26,13,38,36)         98.5544         estimate D2E/DX2                !
 ! D378  D(26,13,38,39)        177.1382         estimate D2E/DX2                !
 ! D379  D(37,13,38,36)        -42.3632         estimate D2E/DX2                !
 ! D380  D(37,13,38,39)         36.2205         estimate D2E/DX2                !
 ! D381  D(12,14,51,22)        -99.818          estimate D2E/DX2                !
 ! D382  D(12,14,51,52)         39.7929         estimate D2E/DX2                !
 ! D383  D(12,14,51,60)        164.2248         estimate D2E/DX2                !
 ! D384  D(12,14,51,63)        -41.5628         estimate D2E/DX2                !
 ! D385  D(9,15,27,11)         -41.285          estimate D2E/DX2                !
 ! D386  D(9,15,27,28)          28.5436         estimate D2E/DX2                !
 ! D387  D(9,15,27,29)          95.6579         estimate D2E/DX2                !
 ! D388  D(9,15,27,30)          95.7085         estimate D2E/DX2                !
 ! D389  D(9,15,27,55)        -111.3797         estimate D2E/DX2                !
 ! D390  D(9,15,27,56)         179.9044         estimate D2E/DX2                !
 ! D391  D(12,15,27,11)         42.5325         estimate D2E/DX2                !
 ! D392  D(12,15,27,28)        112.3611         estimate D2E/DX2                !
 ! D393  D(12,15,27,29)        179.4754         estimate D2E/DX2                !
 ! D394  D(12,15,27,30)        179.5259         estimate D2E/DX2                !
 ! D395  D(12,15,27,55)        -27.5622         estimate D2E/DX2                !
 ! D396  D(12,15,27,56)        -96.2781         estimate D2E/DX2                !
 ! D397  D(6,16,18,7)          -42.147          estimate D2E/DX2                !
 ! D398  D(6,16,18,19)          18.5656         estimate D2E/DX2                !
 ! D399  D(6,16,18,20)          95.2169         estimate D2E/DX2                !
 ! D400  D(6,16,18,40)        -136.2755         estimate D2E/DX2                !
 ! D401  D(6,16,18,42)          42.6201         estimate D2E/DX2                !
 ! D402  D(6,16,18,62)        -174.2341         estimate D2E/DX2                !
[...]
 00004170,0.00002377,-0.00001474,0.00007095,0.00005545,-0.00003005,0.00
 015385,-0.00016679,-0.00000832,-0.00022283,0.00018133,-0.00016381,-0.0
 0004485,0.00002018,-0.00003591,0.00010708,0.00001649,-0.00003896,-0.00
 004601,0.00004478,0.00000048,0.00000647,-0.00001374,0.00002095,-0.0000
 2090,0.00000430,-0.00000638,0.00000860,-0.00000422,0.00000421,0.000006
 25,-0.00000483,0.00000451,0.00000029,0.00002354,-0.00003406,-0.0000038
 4,-0.00000740,0.00001532,0.00001106,-0.00001732,0.00002032,-0.00012641
 ,0.00004750,-0.00011689,-0.00001015,-0.00003666,-0.00001655,0.00000580
 ,0.00000850,0.00008245,0.00033362,-0.00021526,0.00010733,-0.00012818,0
 .00010167,0.00001904,-0.00003447,0.00002229,-0.00001698,-0.00202606,-0
 .00116318,-0.00059951,-0.00286005,0.00413061,0.00169877,0.00027029,0.0
 0009356,-0.00015356,-0.02360098,-0.04027942,0.01259951,-0.00154547,-0.
 00063959,0.00349285,0.00029568,-0.00009142,0.00043115,0.00088368,0.000
 57646,-0.00253774,-0.00004773,-0.00025037,0.00039340,0.00001371,0.0000
 3759,0.00022330,0.00025659,-0.00018220,0.00044486,-0.00010988,0.000037
 39,-0.00003095,-0.00000662,-0.00000610,0.00000804,-0.00487039,0.000783
 74,0.00030184,0.00002579,0.00000232,-0.00000921,-0.00000119,-0.0000077
 4,0.00001133,0.04273067,0.13279604,0.00121740,-0.00193161,0.00026858,0
 .00085099,-0.00092218,0.00048351,-0.00000700,0.00005665,0.00022574,-0.
 00001212,0.00026236,0.00012477,-0.00327102,0.00298123,-0.00147923,-0.0
 0008128,-0.00005874,0.00003294,-0.00001375,0.00000715,0.00000540,0.000
 05101,-0.00003877,-0.00001981,0.00010207,0.00000756,0.00001011,-0.0000
 2505,-0.00000120,-0.00002864,0.00004406,-0.00011730,0.00017472,-0.0013
 5284,0.00169839,-0.00160916,0.00003102,-0.00001001,0.00000250,-0.00241
 333,0.00169508,0.00008073,0.00006932,0.00017814,0.00028006,-0.00001442
 ,-0.00000407,-0.00000361,0.00000227,0.00000087,0.00000242,-0.00001431,
 -0.00001204,0.00001535,-0.00000289,0.00001441,-0.00004056,0.00001001,-
 0.00000822,-0.00002196,0.00643505,-0.00814443,-0.01412544,-0.00108783,
 -0.00876752,-0.00253079,-0.00077891,-0.00122710,0.00126440,-0.00000044
 ,-0.00001975,0.00002031,-0.00000020,-0.00000496,0.00000131,0.00000135,
 0.00001097,0.00000132,0.00012243,0.00020115,-0.00018910,0.00001378,0.0
 0001413,-0.00003447,0.00001676,-0.00002170,0.00002962,-0.00006561,0.00
 001390,-0.00001215,0.00001323,-0.00002222,0.00002544,0.00000344,-0.000
 00755,0.00000627,0.00000913,0.00000740,-0.00001306,0.00000420,0.000002
 96,-0.00001001,-0.00000022,-0.00000703,0.00001100,0.00000208,0.0000061
 3,-0.00001565,-0.00000233,0.00000099,-0.00000013,-0.00000419,0.0000019
 4,0.00000303,-0.00001325,0.00001034,-0.00001270,0.00000035,0.00000367,
 0.00000514,0.00000584,-0.00000924,0.00001222,0.00004752,-0.00002941,0.
 00010381,0.00004454,0.00006363,-0.00000048,0.00003338,-0.00004400,-0.0
 0007605,-0.00064626,0.00015961,-0.00018834,0.00007270,-0.00000268,-0.0
 0000839,0.00012178,0.00000340,-0.00001971,-0.00015362,0.00004974,0.001
 88627,0.00208997,0.00062877,0.00005699,0.00013251,0.00019180,-0.000476
 67,0.00584746,0.00475323,-0.02069369,0.00350748,0.00865645,-0.00699062
 ,0.00006988,-0.00011861,-0.00022104,-0.00047976,-0.00277288,0.00175992
 ,0.00026212,0.00047067,0.00031382,-0.00009898,-0.00011045,-0.00023179,
 0.00016881,0.00032093,-0.00038117,-0.00005751,-0.00001062,0.00000204,-
 0.00000065,-0.00000894,0.00001278,0.00072237,-0.00069895,0.00063909,0.
 00002072,0.00000442,-0.00001405,-0.00000365,-0.00000508,-0.00000132,0.
 05537312,0.08414890,0.24506458,0.00020413,0.00006898,0.00038131,-0.000
 90566,-0.00036092,-0.00021365,0.00019916,-0.00002440,-0.00001528,0.000
 04623,-0.00000176,-0.00005376,0.00032921,0.00014502,0.00032250,-0.0000
 0759,0.00000988,0.00000268,-0.00000923,-0.00000614,0.00000188,0.000019
 21,-0.00004343,0.00000452,0.00000905,-0.00002407,-0.00002381,-0.000016
 04,0.00000184,-0.00000046,-0.00002701,-0.00004299,-0.00005096,-0.00032
 195,0.00020630,-0.00019004,0.00002261,-0.00000108,-0.00001154,-0.00047
 315,0.00038100,0.00095053,-0.00003628,0.00000448,0.00005772,-0.0000016
 7,0.00000536,0.00000951,0.00000303,0.00000021,0.00000357,-0.00000491,-
 0.00000227,0.00000693,-0.00000190,0.00000794,-0.00002042,0.00000096,-0
 .00000345,-0.00001060,-0.00506315,0.00648046,-0.00555585,-0.02102654,0
 .04661709,-0.02869685,0.00037446,0.00037702,-0.00021478,-0.00000264,0.
 00000214,-0.00000887,0.00000542,-0.00000434,0.00000035,-0.00000993,-0.
 00000399,-0.00000242,0.00004074,0.00000614,0.00004975,-0.00001188,-0.0
 0000162,0.00000055,0.00001510,-0.00000950,-0.00000209,-0.00004180,0.00
 004492,0.00000109,0.00004103,-0.00003804,0.00004380,0.00000732,-0.0000
 1382,0.00000551,-0.00003139,0.00000451,0.00000044,0.00001174,-0.000008
 66,-0.00000090,-0.00000149,-0.00000104,0.00000169,0.00000483,0.0000051
 3,-0.00000679,-0.00000470,0.00000088,-0.00000014,-0.00000482,0.0000028
 1,-0.00000057,-0.00000558,-0.00000184,0.00000574,0.00000106,0.00000333
 ,-0.00000542,-0.00000025,0.00000008,0.00000007,0.00003570,-0.00001669,
 0.00003810,0.00001280,0.00000838,0.00000053,-0.00000308,-0.00001170,-0
 .00000918,-0.00010292,0.00000858,-0.00005477,-0.00003255,-0.00006137,0
 .00008892,0.00001579,0.00000176,0.00000697,-0.00015965,-0.00056799,-0.
 00020930,0.00021781,-0.00038037,0.00050957,-0.00001471,0.00005034,0.00
 000439,0.00009116,-0.00463674,0.00506883,0.00058393,0.00009860,-0.0000
 4206,0.00006841,-0.00003515,-0.00004096,-0.00034311,-0.00031171,-0.000
 00631,0.00011161,0.00002591,0.00004758,0.00002379,0.00000907,-0.000053
 89,0.00000372,0.00010161,-0.00012591,0.00000618,-0.00000866,0.00000540
 ,0.00000250,-0.00000441,0.00000683,-0.00064301,0.00014424,-0.00030659,
 -0.00000027,0.00000259,-0.00000147,0.00000084,0.00000135,-0.00000476,0
 .00083471,-0.00027424,-0.00070695,0.02607250,0.00016277,-0.00006296,0.
 00023951,0.00048269,0.00021676,0.00015707,0.00000146,-0.00000739,-0.00
 001764,-0.00000130,-0.00001627,0.00001294,0.00009055,0.00003765,0.0002
 0529,0.00000192,0.00000258,0.00002201,-0.00000320,0.00000091,0.0000032
 5,-0.00001107,-0.00001723,-0.00001265,0.00004381,0.00002122,-0.0000145
 8,-0.00000789,-0.00000381,-0.00000100,-0.00002394,-0.00003461,-0.00004
 935,-0.00002295,0.00005339,-0.00071280,0.00000333,0.00000557,-0.000001
 28,-0.00010815,0.00042429,0.00052129,-0.00002250,-0.00002537,-0.000012
 73,-0.00000272,-0.00000251,-0.00000221,0.00000087,-0.00000244,0.000001
 13,-0.00000515,-0.00000256,0.00000202,-0.00000137,0.00000541,-0.000015
 60,0.00000064,-0.00000275,-0.00000572,-0.00075434,0.00218390,-0.001546
 85,0.04932430,-0.19050666,0.10622968,-0.00044134,-0.00003384,-0.000132
 98,-0.00000685,-0.00000152,0.00000643,0.00000121,-0.00000138,0.0000006
 3,-0.00000748,0.00000616,-0.00000044,-0.00000704,0.00000133,0.00002442
 ,0.00000140,-0.00000203,-0.00000434,0.00000988,0.00000083,-0.00000671,
 -0.00000677,0.00000383,0.00000569,0.00000674,-0.00000407,0.00000315,-0
 .00000180,0.00000005,-0.00000467,0.00000232,0.00000261,0.00000104,0.00
 000274,-0.00000096,-0.00000111,-0.00000076,0.00000005,0.00000015,0.000
 00065,0.00000018,-0.00000032,-0.00000078,-0.00000007,-0.00000047,-0.00
 000073,0.00000017,-0.00000064,-0.00000121,-0.00000083,0.00000196,-0.00
 000051,0.00000084,-0.00000098,-0.00000078,0.00000074,-0.00000075,0.000
 02900,-0.00000951,0.00003381,0.00000881,0.00001780,-0.00000314,0.00000
 135,-0.00000835,-0.00002309,-0.00016784,0.00003228,-0.00002747,0.00002
 101,-0.00001406,0.00000825,0.00003466,0.00000166,-0.00000697,-0.000025
 07,-0.00008999,-0.00003375,-0.00017076,-0.00019552,0.00035632,-0.00001
 859,0.00003461,0.00002188,-0.00040011,0.00176328,-0.00029337,-0.000239
 33,0.00020368,-0.00006435,-0.00006492,0.00006183,-0.00001137,-0.000035
 30,-0.00029674,0.00018929,0.00005667,-0.00001194,0.00006081,0.00001793
 ,-0.00003826,-0.00003654,0.00000789,0.00005843,-0.00005496,0.00000368,
 -0.00000692,0.00000957,-0.00000092,-0.00000053,0.00000026,0.00066789,0
 .00019490,-0.00097501,-0.00000163,0.00000007,0.00000049,-0.00000019,-0
 .00000066,-0.00000150,-0.00049240,-0.00071846,-0.00180139,-0.04801641,
 0.18713271,0.00036879,-0.00019303,0.00031244,0.00018869,0.00000092,-0.
 00040632,-0.00007017,0.00013089,0.00003981,-0.00001730,0.00003758,0.00
 002737,0.00002112,0.00011279,0.00025705,-0.00000811,-0.00000553,0.0000
 1643,0.00000600,0.00001136,0.00000193,-0.00002780,-0.00000547,-0.00003
 739,0.00003093,0.00000518,0.00003040,0.00000667,-0.00000313,-0.0000048
 4,-0.00001790,-0.00013354,-0.00014797,0.00035558,0.00039806,-0.0007512
 9,-0.00001180,-0.00000435,0.00001365,0.00047520,-0.00031778,-0.0014053
 2,0.00000923,-0.00004411,0.00004314,0.00000157,-0.00000167,-0.00000693
 ,-0.00000179,0.00000018,0.00000056,0.00000328,0.00000270,-0.00000482,0
 .00000205,-0.00000207,0.00002081,0.00000185,0.00000050,0.00000370,-0.0
 0143069,0.00201930,-0.00197989,-0.02659045,0.09465278,-0.07024969,0.00
 010201,-0.00027705,-0.00009853,-0.00000430,-0.00001409,0.00001322,-0.0
 0000413,0.00000062,0.00000151,0.00000123,0.00000769,-0.00000538,-0.000
 03024,-0.00000524,-0.00001461,0.00001299,-0.00000135,-0.00000026,0.000
 00882,0.00000212,0.00000002,0.00000584,-0.00000908,-0.00000197,-0.0000
 1541,0.00001081,-0.00000636,-0.00000319,0.00000301,-0.00000412,0.00002
 609,0.00000024,-0.00001489,-0.00000686,0.00000767,-0.00000251,0.000001
 70,-0.00000573,0.00000817,-0.00000341,0.00000459,-0.00000554,0.0000013
 1,-0.00000279,-0.00000190,0.00000299,0.00000107,0.00000110,-0.00000060
 ,0.00001000,-0.00001521,-0.00000125,-0.00000170,0.00000784,0.00000581,
 -0.00000878,0.00001061,-0.00005132,0.00000640,-0.00002532,0.00000230,0
 .00000468,0.00000085,0.00000138,-0.00000132,0.00000666,0.00000641,-0.0
 0002625,0.00002175,-0.00006017,-0.00006427,-0.00000375,0.00002850,0.00
 001157,-0.00002681,-0.00008961,-0.00040338,0.00003815,-0.00016957,0.00
 006505,0.00041692,0.00005554,0.00007999,-0.00009184,-0.00185089,0.0072
 1583,-0.00507302,-0.00043113,0.00034440,0.00011358,-0.00001651,0.00010
 743,0.00000614,0.00009031,-0.00028498,0.00047948,0.00001278,0.00003182
 ,-0.00002821,0.00002870,-0.00009402,-0.00004049,0.00002716,0.00003068,
 -0.00006592,-0.00002186,-0.00000124,0.00000411,-0.00000124,-0.00000483
 ,0.00000758,0.00082771,-0.00008670,0.00008405,0.00001758,0.00000483,-0
 .00000908,-0.00000156,-0.00000551,0.00000417,-0.00063469,-0.00085369,-
 0.00148254,0.02878914,-0.10247777,0.07943242,-0.00061065,0.00050081,-0
 .00031335,-0.00040871,0.00003335,-0.00015946,0.00007615,-0.00007890,-0
 .00002665,-0.00008001,-0.00001017,-0.00003414,-0.00051516,0.00071909,-
 0.00004598,-0.00000338,-0.00000218,-0.00004364,-0.00001145,0.00000058,
 0.00000320,-0.00001005,0.00007571,0.00002392,0.00001321,0.00000049,0.0
 0001362,-0.00001501,-0.00000566,0.00000086,0.00001275,0.00000364,0.000
 00898,0.00031791,0.00002629,-0.00028469,0.00001632,0.00000282,-0.00001
 361,-0.00005535,0.00001234,0.00029138,-0.00001509,0.00000247,0.0000309
 0,-0.00000109,0.00000077,0.00000860,0.00000275,-0.00000062,0.00000381,
 -0.00000807,0.00000046,0.00000625,-0.00000137,0.00000532,-0.00001575,0
 .00000186,-0.00000194,-0.00000895,0.00299051,0.00207124,0.00695624,0.0
 0025784,0.00056662,0.00018900,0.00017353,0.00013433,-0.00048989,-0.000
 00171,0.00001235,-0.00000825,0.00000395,-0.00000356,-0.00000008,-0.000
 01133,-0.00000478,0.00000170,0.00006472,0.00002687,-0.00002654,-0.0000
 2015,-0.00000036,-0.00000699,-0.00000922,-0.00001057,0.00000065,-0.000
 04828,0.00005982,0.00000826,0.00005224,-0.00005439,0.00005870,0.000010
 64,-0.00001496,0.00000664,-0.00003622,0.00000233,0.00000240,0.00001455
 ,-0.00001058,0.00000105,-0.00000119,0.00000040,-0.00000118,0.00000785,
 0.00000483,-0.00000473,-0.00000442,0.00000072,-0.00000106,-0.00000429,
 0.00000272,-0.00000011,-0.00000710,-0.00000418,0.00000763,0.00000224,0
 .00000373,-0.00000591,-0.00000046,0.00000091,-0.00000092,0.00002844,-0
 .00001207,0.00002172,0.00000763,0.00000593,0.00000474,-0.00000928,-0.0
 0000350,-0.00000947,-0.00004956,0.00000815,-0.00000158,0.00013171,0.00
 013444,0.00010047,-0.00000528,-0.00000111,-0.00000332,0.00003562,-0.00
 003806,-0.00059316,0.00054910,-0.00037815,-0.00002464,-0.00006688,0.00
 001111,0.00009829,-0.00245108,-0.00003470,-0.00567390,0.00024054,-0.00
 000598,0.00015349,0.00028553,-0.00001214,-0.00010684,-0.00054500,-0.00
 099207,0.00092349,0.00001440,0.00012326,0.00009238,-0.00002686,-0.0000
 4882,-0.00007793,0.00004061,0.00010397,-0.00019312,0.00000429,0.000005
 70,-0.00001446,0.00000297,-0.00000481,0.00000735,-0.00004433,-0.000631
 45,0.00034032,-0.00000198,0.00000066,0.00000018,0.00000118,0.00000234,
 -0.00000547,-0.03800136,-0.03535372,-0.06621180,-0.00010788,0.00008794
 ,0.00004670,0.03782823,0.00046188,-0.00026779,-0.00013268,0.00002065,-
 0.00003052,0.00000389,-0.00005937,0.00003077,0.00008998,0.00002640,0.0
 0004381,0.00003759,0.00056911,0.00008354,0.00036918,-0.00004691,0.0000
 2155,0.00002015,0.00000195,-0.00000622,-0.00000328,-0.00000462,-0.0000
 3126,-0.00004872,-0.00001567,0.00001788,0.00000402,-0.00000384,0.00000
 134,-0.00000543,0.00001780,-0.00003064,0.00003381,0.00003382,-0.000180
 05,-0.00071823,0.00000129,0.00000209,-0.00000561,-0.00020638,0.0000152
 0,-0.00007995,0.00001609,0.00008927,0.00009971,0.00000311,-0.00000258,
 0.00000152,-0.00000120,-0.00000473,-0.00000038,-0.00000526,-0.00000783
 ,-0.00000029,-0.00000289,0.00000514,-0.00002420,-0.00000162,-0.0000036
 1,-0.00000381,0.00018890,-0.00423279,-0.00415775,-0.00041641,-0.001665
 98,-0.00071637,-0.00029533,-0.00025855,0.00034704,-0.00000475,0.000000
 83,0.00000673,-0.00000112,0.00000064,0.00000012,0.00000111,-0.00000097
 ,0.00000220,-0.00001559,0.00004646,-0.00006688,0.00001107,0.00000129,0
 .00000054,0.00001188,-0.00000707,0.00001808,0.00000376,-0.00003592,0.0
 0000052,-0.00003180,0.00001928,-0.00001975,-0.00000992,0.00001355,-0.0
 0000834,0.00002297,0.00000154,0.00001086,0.00000054,0.00000083,-0.0000
 0820,-0.00000179,0.00000536,-0.00000682,0.,-0.00000904,0.00000740,-0.0
 0000028,0.00000134,0.00000017,-0.00000002,-0.00000069,-0.00000054,0.00
 000255,-0.00000605,0.00000803,-0.00000081,0.00000002,-0.00000190,-0.00
 000480,0.00000748,-0.00000866,0.00004751,-0.00000688,0.00004505,0.0000
 1048,0.00000586,-0.00000056,0.00001134,-0.00001170,-0.00002496,-0.0001
 6176,0.00010856,-0.00004882,0.00003385,-0.00001545,-0.00010876,0.00001
 292,-0.00001338,0.00001428,0.00020720,-0.00020583,0.00052127,-0.000994
 02,0.00038334,0.00004414,-0.00001507,0.00004959,-0.00008510,-0.0020843
 6,-0.00489354,-0.00481899,-0.00020345,0.00022991,0.00046180,0.00009206
 ,-0.00007085,-0.00012067,-0.00023729,-0.00044065,0.00057998,0.00005408
 ,0.00008944,0.00010382,0.00001683,-0.00003720,-0.00013171,0.00005946,0
 .00012500,-0.00011338,-0.00001594,-0.00000260,0.00000909,-0.00000404,0
 .00000755,-0.00001246,0.00061906,0.00040357,-0.00040903,-0.00001386,-0
 .00000273,0.00000789,-0.00000014,0.00000244,-0.00000027,-0.03075515,-0
 .04667754,-0.07968836,0.00009084,-0.00034952,0.00001771,0.03296494,0.0
 5769567,0.00004396,-0.00023352,-0.00004666,0.00014153,0.00010645,0.000
 00648,-0.00001257,0.00004847,-0.00002624,-0.00000690,0.00014137,0.0000
 3158,-0.00048946,0.00025191,0.00048312,-0.00003165,-0.00001907,-0.0000
 0166,0.00000191,0.00000835,-0.00000032,0.00003485,-0.00001783,-0.00004
 551,0.00000988,0.00001177,-0.00000252,0.00000793,0.00000555,-0.0000039
 2,0.00003452,-0.00005572,0.00000939,-0.00014691,0.00009568,0.00024702,
 -0.00000416,0.00000371,-0.00000580,0.00010560,0.00020571,-0.00015442,0
 .00001148,-0.00001903,-0.00001385,-0.00000017,-0.00000242,-0.00000214,
 -0.00000198,0.00000205,-0.00000239,-0.00000181,-0.00000362,-0.00000159
 ,-0.00000003,-0.00000108,0.00000129,0.00000059,0.00000043,0.00000183,-
 0.00156500,0.00063893,-0.00172314,0.00005399,-0.00121686,-0.00004620,-
 0.00009867,0.00005260,0.00021074,0.00000073,-0.00000484,-0.00000181,-0
 .00000224,0.00000240,-0.00000288,0.00000869,-0.00000371,-0.00000240,0.
 00002258,0.00005342,-0.00002091,-0.00000193,0.00000457,0.00000334,-0.0
 0000043,-0.00000485,-0.00000081,-0.00000458,-0.00000097,-0.00000754,0.
 00001208,0.00000043,0.00000444,0.00000063,0.00000217,0.00000105,0.0000
 0332,-0.00000199,0.00000063,-0.00000184,0.00000116,0.00000006,0.000000
 78,0.00000027,-0.00000077,-0.00000206,-0.00000180,0.00000293,0.0000016
 9,0.00000069,0.00000061,0.00000191,-0.00000230,0.00000037,0.00000172,0
 .00000153,-0.00000295,-0.00000078,-0.00000044,0.00000290,0.00000031,-0
 .00000058,0.00000080,-0.00000621,0.00000281,-0.00000248,0.00000790,0.0
 0000474,0.00001182,0.00000146,-0.00000997,-0.00000053,0.00002131,0.000
 01409,-0.00001577,0.00006290,-0.00011429,0.00007641,-0.00001402,-0.000
 00299,0.00000434,-0.00015299,0.00020417,0.00022735,0.00040184,0.000414
 45,-0.00025202,0.00004790,-0.00009489,0.00004503,0.00113883,0.00210465
 ,0.00323209,0.00094716,0.00104333,0.00021181,-0.00012576,-0.00002362,0
 .00015225,-0.00013747,0.00023987,-0.00084798,-0.00002467,0.00010135,-0
 .00008800,-0.00010683,0.00001063,0.00003370,0.00002602,-0.00003670,0.0
 0001856,0.00000700,-0.00000312,-0.00000127,-0.00000016,0.00000108,-0.0
 0000161,-0.00003902,-0.00032218,0.00029289,0.00000173,0.00000025,-0.00
 000186,-0.00000077,-0.00000161,0.00000143,-0.06540930,-0.09253346,-0.2
 0199385,0.00023091,0.00023819,0.00058712,0.06499466,0.08871429,0.19941
 839\\0.00000009,0.00000734,-0.00000598,-0.00000093,-0.00000143,0.00000
 266,-0.00000345,0.00000097,0.00000145,-0.00000424,-0.00001103,-0.00000
 356,-0.00000194,0.00000040,-0.00000275,0.00000804,0.00000942,-0.000003
 01,-0.00000111,0.00001482,0.00000551,-0.00000357,0.00000047,0.00000515
 ,-0.00000079,-0.00000233,0.00000353,-0.00001265,0.00000275,0.00001231,
 -0.00000125,0.00000473,-0.00000280,0.00000384,-0.00000933,0.00000658,-
 0.00000814,0.00002935,-0.00001873,-0.00000646,-0.00000547,0.00000460,-
 0.00000252,0.00000004,-0.00000107,0.00001159,-0.00000245,-0.00000041,-
 0.00001747,0.00001045,0.00001158,-0.00001449,-0.00000133,0.00002706,-0
 .00000505,0.00000448,0.00000720,0.00000403,-0.00000075,-0.00000136,0.0
 0000078,-0.00000178,0.00000041,-0.00000006,-0.00000037,-0.00000025,0.0
 0000214,0.00000026,0.00000189,0.00002993,-0.00001175,-0.00000538,-0.00
 000299,-0.00001942,0.00001045,-0.00000642,-0.00000915,-0.00000361,-0.0
 0000406,0.00000606,0.00000838,-0.00000485,-0.00000365,-0.00000502,-0.0
 0000576,0.00000611,-0.00000476,0.00002167,-0.00000685,-0.00001756,-0.0
 0000982,-0.00001010,-0.00000301,-0.00000827,0.00000562,-0.00000490,-0.
 00002796,0.00000430,0.00002956,0.00000283,-0.00000602,-0.00000497,0.00
 001270,-0.00000149,0.00000031,-0.00000902,0.00003290,-0.00003920,0.000
 00020,0.00001597,-0.00000068,-0.00000837,-0.00001453,0.00001689,0.0000
 0070,-0.00004783,-0.00000153,0.00000452,-0.00000007,0.00000646,0.00001
 534,-0.00000092,-0.00000757,-0.00000055,0.00000317,-0.00003327,-0.0000
 0800,-0.00000630,-0.00000380,-0.00001240,-0.00001072,0.00002085,0.0000
 1776,-0.00000606,0.00001348,-0.00000121,0.00000098,0.00000031,0.000003
 03,0.00000233,-0.00000184,-0.00000305,0.00000083,-0.00000395,0.0000023
 9,0.00000090,-0.00000094,0.00000268,-0.00000041,-0.00000148,0.00001700
 ,-0.00000322,-0.00000446,-0.00000779,0.00000264,0.00000858,-0.00000558
 ,-0.00001515,0.00002405,0.00000308,0.00004155,-0.00006565,0.00000342,-
 0.00000317,-0.00000514,-0.00000119,-0.00000416,0.00001169,0.00000395,0
 .00000626,0.00001249,-0.00000169,-0.00000002,0.00000132,0.00001642,0.0
 0000746,-0.00000179,-0.00000138,-0.00000324,0.00000654,0.00001320,-0.0
 0001049,0.00000247,0.00001131,0.00000773,-0.00000479,0.00000045,-0.000
 00068,0.00000189,0.00000070,0.00000060,0.00000040,0.00000070,0.0000008
 0,-0.00000078\\\@
 The archive entry for this job was punched.


 CONTRAIWISE...CONTINUED TWEEDLEDEE, IF IT WAS SO, IT MIGHT BE,
 AND IF IT WERE SO, IT WOULD BE.....
 BUT AS IT ISN'T, IT AIN'T....
 THAT'S LOGIC.....
 ALICE THROUGH THE LOOKING GLASS
 Job cpu time:       5 days 23 hours  7 minutes  7.6 seconds.
 Elapsed time:       0 days  3 hours  7 minutes 19.6 seconds.
 File lengths (MBytes):  RWF=  13882 Int=      0 D2E=      0 Chk=    137 Scr=      2
 Normal termination of Gaussian 16 at Tue Feb 21 10:02:02 2023.
