 Entering Gaussian System, Link 0=g16
 Initial command:
 /home/chesagar/softwares/G16_AVX2//g16/l1.exe "/home/chesagar/scratch/Gau-103484.inp" -scrdir="/home/chesagar/scratch/"
 Entering Link 1 = /home/chesagar/softwares/G16_AVX2//g16/l1.exe PID=    103485.
  
 Copyright (c) 1988-2019, Gaussian, Inc.  All Rights Reserved.
  
 This is part of the Gaussian(R) 16 program.  It is based on
 the Gaussian(R) 09 system (copyright 2009, Gaussian, Inc.),
 the Gaussian(R) 03 system (copyright 2003, Gaussian, Inc.),
 the Gaussian(R) 98 system (copyright 1998, Gaussian, Inc.),
 the Gaussian(R) 94 system (copyright 1995, Gaussian, Inc.),
 the Gaussian 92(TM) system (copyright 1992, Gaussian, Inc.),
 the Gaussian 90(TM) system (copyright 1990, Gaussian, Inc.),
 the Gaussian 88(TM) system (copyright 1988, Gaussian, Inc.),
 the Gaussian 86(TM) system (copyright 1986, Carnegie Mellon
 University), and the Gaussian 82(TM) system (copyright 1983,
 Carnegie Mellon University). Gaussian is a federally registered
 trademark of Gaussian, Inc.
  
 This software contains proprietary and confidential information,
 including trade secrets, belonging to Gaussian, Inc.
  
 This software is provided under written license and may be
 used, copied, transmitted, or stored only in accord with that
 written license.
  
 The following legend is applicable only to US Government
 contracts under FAR:
  
                    RESTRICTED RIGHTS LEGEND
  
 Use, reproduction and disclosure by the US Government is
 subject to restrictions as set forth in subparagraphs (a)
 and (c) of the Commercial Computer Software - Restricted
 Rights clause in FAR 52.227-19.
  
 Gaussian, Inc.
 340 Quinnipiac St., Bldg. 40, Wallingford CT 06492
  
  
 ---------------------------------------------------------------
 Warning -- This program may not be used in any manner that
 competes with the business of Gaussian, Inc. or will provide
 assistance to any competitor of Gaussian, Inc.  The licensee
 of this program is prohibited from giving any competitor of
 Gaussian, Inc. access to this program.  By using this program,
 the user acknowledges that Gaussian, Inc. is engaged in the
 business of creating and licensing software in the field of
 computational chemistry and represents and warrants to the
 licensee that it is not a competitor of Gaussian, Inc. and that
 it will not use this program in any manner prohibited above.
 ---------------------------------------------------------------
  

 Cite this work as:
 Gaussian 16, Revision C.01,
 M. J. Frisch, G. W. Trucks, H. B. Schlegel, G. E. Scuseria, 
 M. A. Robb, J. R. Cheeseman, G. Scalmani, V. Barone, 
 G. A. Petersson, H. Nakatsuji, X. Li, M. Caricato, A. V. Marenich, 
 J. Bloino, B. G. Janesko, R. Gomperts, B. Mennucci, H. P. Hratchian, 
 J. V. Ortiz, A. F. Izmaylov, J. L. Sonnenberg, D. Williams-Young, 
 F. Ding, F. Lipparini, F. Egidi, J. Goings, B. Peng, A. Petrone, 
 T. Henderson, D. Ranasinghe, V. G. Zakrzewski, J. Gao, N. Rega, 
 G. Zheng, W. Liang, M. Hada, M. Ehara, K. Toyota, R. Fukuda, 
 J. Hasegawa, M. Ishida, T. Nakajima, Y. Honda, O. Kitao, H. Nakai, 
 T. Vreven, K. Throssell, J. A. Montgomery, Jr., J. E. Peralta, 
 F. Ogliaro, M. J. Bearpark, J. J. Heyd, E. N. Brothers, K. N. Kudin, 
 V. N. Staroverov, T. A. Keith, R. Kobayashi, J. Normand, 
 K. Raghavachari, A. P. Rendell, J. C. Burant, S. S. Iyengar, 
 J. Tomasi, M. Cossi, J. M. Millam, M. Klene, C. Adamo, R. Cammi, 
 J. W. Ochterski, R. L. Martin, K. Morokuma, O. Farkas, 
 J. B. Foresman, and D. J. Fox, Gaussian, Inc., Wallingford CT, 2019.
 
 ******************************************
 Gaussian 16:  ES64L-G16RevC.01  3-Jul-2019
                 8-Mar-2023 
 ******************************************
 %nprocshared=46
 Will use up to   46 processors via shared memory.
 %chk=Mo19S43_H2S_i2_f2.chk
 %mem=100GB
 ---------------------------------------------------------
 # opt freq b3lyp/gen nosymm pseudo=read scf=maxcycles=500
 ---------------------------------------------------------
 1/18=20,19=15,26=3,38=1/1,3;
 2/9=110,12=2,15=1,17=6,18=5,40=1/2;
 3/5=7,11=2,16=1,17=8,25=1,30=1,71=1,74=-5/1,2,3;
 4//1;
 5/5=2,7=500,38=5/2;
 6/7=2,8=2,9=2,10=2,28=1/1;
 7/30=1/1,2,3,16;
 1/18=20,19=15,26=3/3(2);
 2/9=110,15=1/2;
 99//99;
 2/9=110,15=1/2;
 3/5=7,6=1,11=2,16=1,17=8,25=1,30=1,71=1,74=-5,82=7/1,2,3;
 4/5=5,16=3,69=1/1;
 5/5=2,7=500,38=5/2;
 7/30=1/1,2,3,16;
 1/18=20,19=15,26=3/3(-5);
 2/9=110,15=1/2;
 6/7=2,8=2,9=2,10=2,19=2,28=1/1;
 99/9=1/99;
 -------------------
 Title Card Required
 -------------------
 Symbolic Z-matrix:
 Charge =  0 Multiplicity = 1
 42                    0.26583   1.27537   12.57136 
 16                    2.26057   2.18856   13.61902 
 16                   -0.81302   1.99938   14.76878 
 16                   -0.51908   0.98204   10.28843 
 16                    1.88028  -0.4255    11.93102 
 42                   -2.08702   2.69036   10.97622 
 16                   -2.93086   2.51714   8.68028 
 16                   -0.11613   3.59694   12.03701 
 42                    0.91021   2.92537   9.91633 
 16                    0.08528   2.67924   7.62247 
 16                    2.52835   1.21139   9.2512 
 42                    3.30632   1.50253   11.52445 
 42                   -1.47222   4.42535   8.31847 
 16                    5.36011   2.44448   12.6879 
 16                    2.93016   3.8203    10.97142 
 16                   -2.40041   5.06359   10.48227 
 16                    1.30537   6.93909   6.51778 
 42                   -4.40196   4.2276    9.52313 
 16                   -5.92129   2.21397   9.6725 
 16                   -5.4897    4.74163   11.47937 
 42                    2.57706  -0.12507   14.23623 
 16                    4.71132   0.77876   15.35837 
 16                    1.59727   0.59134   16.26618 
 42                    1.54013   4.57479   7.29159 
 16                    0.67472   4.34384   4.91646 
 16                    0.5367    5.27826   9.36484 
 42                    3.98293   3.11655   8.89231 
 16                    3.20068   2.87446   6.61547 
 16                    3.5354    5.44979   8.39678 
 42                    4.56157   4.83169   6.36141 
 16                    6.76897   4.09816   5.96164 
 16                    4.33397   7.01308   5.69498 
 42                    2.39068   5.98152   4.48506 
 16                    3.91434   4.40058   3.98651 
 16                   -1.21523   7.29432   3.9942 
 42                   -0.88162   6.09539   5.70219 
 16                   -2.38767   4.21138   5.9201 
 16                   -1.7429    6.95164   7.79489 
 42                   -3.62242   6.0703    6.68693 
 16                   -5.64881   4.791     7.43298 
 16                   -4.40599   7.31722   5.17557 
 42                   -5.20764   2.27883   11.80454 
 16                   -3.31194   3.24929   13.09582 
 16                   -3.51568   0.62919   11.41102 
 42                   -2.67293   0.93064   13.72382 
 16                   -1.18056  -0.77964   12.99276 
 16                   -4.14666   0.23836   15.0699 
 42                   -0.39314  -0.3446    15.23939 
 16                    1.22225  -2.03387   14.59658 
 16                   -1.37879  -1.25269   16.87913 
 42                    5.69237   0.12334   13.12335 
 16                    4.94727  -0.33766   10.90831 
 16                    8.30033   1.11435   10.97282 
 42                    6.27789   1.65023   10.61099 
 16                    5.72627   1.25409   8.19755 
 16                    6.12772   4.05743   9.95946 
 42                    7.0263    3.1435    8.01616 
 16                    9.09559   2.74305   8.2185 
 16                    2.14582   7.06338   2.67985 
 16                    7.6128   -0.52031   13.75773 
 16                   -6.86676   1.63418   12.95486 
 16                   -5.12813   6.45947   8.62405 
 16                    4.35264  -1.88798   13.78813 
 1                     5.01924  -0.3473    16.03857 
 1                     4.80947  -2.14243   15.03074 
 

 GradGradGradGradGradGradGradGradGradGradGradGradGradGradGradGradGradGrad
 Berny optimization.
 Initialization pass.
                           ----------------------------
                           !    Initial Parameters    !
                           ! (Angstroms and Degrees)  !
 --------------------------                            --------------------------
 ! Name  Definition              Value          Derivative Info.                !
 --------------------------------------------------------------------------------
 ! R1    R(1,2)                  2.4311         estimate D2E/DX2                !
 ! R2    R(1,3)                  2.5528         estimate D2E/DX2                !
 ! R3    R(1,4)                  2.4319         estimate D2E/DX2                !
 ! R4    R(1,5)                  2.4309         estimate D2E/DX2                !
 ! R5    R(1,8)                  2.4127         estimate D2E/DX2                !
 ! R6    R(1,46)                 2.5481         estimate D2E/DX2                !
 ! R7    R(2,12)                 2.4396         estimate D2E/DX2                !
 ! R8    R(2,21)                 2.4154         estimate D2E/DX2                !
 ! R9    R(3,45)                 2.3861         estimate D2E/DX2                !
 ! R10   R(3,48)                 2.4273         estimate D2E/DX2                !
 ! R11   R(4,6)                  2.4186         estimate D2E/DX2                !
 ! R12   R(4,9)                  2.4409         estimate D2E/DX2                !
 ! R13   R(5,12)                 2.4323         estimate D2E/DX2                !
 ! R14   R(5,21)                 2.4269         estimate D2E/DX2                !
 ! R15   R(6,7)                  2.4522         estimate D2E/DX2                !
 ! R16   R(6,8)                  2.4149         estimate D2E/DX2                !
 ! R17   R(6,16)                 2.4443         estimate D2E/DX2                !
 ! R18   R(6,43)                 2.5111         estimate D2E/DX2                !
 ! R19   R(6,44)                 2.5453         estimate D2E/DX2                !
 ! R20   R(7,13)                 2.429          estimate D2E/DX2                !
 ! R21   R(7,18)                 2.4084         estimate D2E/DX2                !
 ! R22   R(8,9)                  2.4498         estimate D2E/DX2                !
 ! R23   R(9,10)                 2.4501         estimate D2E/DX2                !
 ! R24   R(9,11)                 2.4492         estimate D2E/DX2                !
 ! R25   R(9,15)                 2.4483         estimate D2E/DX2                !
 ! R26   R(9,26)                 2.4453         estimate D2E/DX2                !
 ! R27   R(10,13)                2.4411         estimate D2E/DX2                !
 ! R28   R(10,24)                2.4123         estimate D2E/DX2                !
 ! R29   R(11,12)                2.4203         estimate D2E/DX2                !
 ! R30   R(11,27)                2.4237         estimate D2E/DX2                !
 ! R31   R(12,14)                2.5414         estimate D2E/DX2                !
 ! R32   R(12,15)                2.4123         estimate D2E/DX2                !
 ! R33   R(12,52)                2.5414         estimate D2E/DX2                !
 ! R34   R(12,54)                3.1123         estimate D2E/DX2                !
 ! R35   R(13,16)                2.4394         estimate D2E/DX2                !
 ! R36   R(13,26)                2.4203         estimate D2E/DX2                !
 ! R37   R(13,37)                2.5761         estimate D2E/DX2                !
 ! R38   R(13,38)                2.5941         estimate D2E/DX2                !
 ! R39   R(14,51)                2.3849         estimate D2E/DX2                !
 ! R40   R(14,54)                2.4055         estimate D2E/DX2                !
 ! R41   R(15,27)                2.4344         estimate D2E/DX2                !
 ! R42   R(16,18)                2.3717         estimate D2E/DX2                !
 ! R43   R(17,24)                2.4988         estimate D2E/DX2                !
 ! R44   R(17,33)                2.4953         estimate D2E/DX2                !
 ! R45   R(17,36)                2.4819         estimate D2E/DX2                !
 ! R46   R(18,19)                2.5269         estimate D2E/DX2                !
 ! R47   R(18,20)                2.2966         estimate D2E/DX2                !
 ! R48   R(18,40)                2.4982         estimate D2E/DX2                !
 ! R49   R(18,42)                3.1067         estimate D2E/DX2                !
 ! R50   R(18,62)                2.5133         estimate D2E/DX2                !
 ! R51   R(19,42)                2.2492         estimate D2E/DX2                !
 ! R52   R(20,42)                2.5001         estimate D2E/DX2                !
 ! R53   R(21,22)                2.5751         estimate D2E/DX2                !
 ! R54   R(21,23)                2.3652         estimate D2E/DX2                !
 ! R55   R(21,49)                2.3683         estimate D2E/DX2                !
 ! R56   R(21,63)                2.5419         estimate D2E/DX2                !
 ! R57   R(22,51)                2.5273         estimate D2E/DX2                !
 ! R58   R(22,64)                1.3511         estimate D2E/DX2                !
 ! R59   R(23,48)                2.4273         estimate D2E/DX2                !
 ! R60   R(24,25)                2.5384         estimate D2E/DX2                !
 ! R61   R(24,26)                2.4083         estimate D2E/DX2                !
 ! R62   R(24,28)                2.471          estimate D2E/DX2                !
 ! R63   R(24,29)                2.443          estimate D2E/DX2                !
 ! R64   R(25,33)                2.4109         estimate D2E/DX2                !
 ! R65   R(25,36)                2.4713         estimate D2E/DX2                !
 ! R66   R(27,28)                2.4196         estimate D2E/DX2                !
 ! R67   R(27,29)                2.4269         estimate D2E/DX2                !
 ! R68   R(27,30)                3.1116         estimate D2E/DX2                !
 ! R69   R(27,55)                2.644          estimate D2E/DX2                !
 ! R70   R(27,56)                2.5737         estimate D2E/DX2                !
 ! R71   R(28,30)                2.3974         estimate D2E/DX2                !
 ! R72   R(29,30)                2.3617         estimate D2E/DX2                !
 ! R73   R(30,31)                2.3602         estimate D2E/DX2                !
 ! R74   R(30,32)                2.2922         estimate D2E/DX2                !
 ! R75   R(30,33)                3.0912         estimate D2E/DX2                !
 ! R76   R(30,34)                2.499          estimate D2E/DX2                !
 ! R77   R(31,57)                2.2801         estimate D2E/DX2                !
 ! R78   R(32,33)                2.5109         estimate D2E/DX2                !
 ! R79   R(33,34)                2.2515         estimate D2E/DX2                !
 ! R80   R(33,59)                2.1188         estimate D2E/DX2                !
 ! R81   R(35,36)                2.1133         estimate D2E/DX2                !
 ! R82   R(36,37)                2.4218         estimate D2E/DX2                !
 ! R83   R(36,38)                2.4196         estimate D2E/DX2                !
 ! R84   R(36,39)                2.9124         estimate D2E/DX2                !
 ! R85   R(37,39)                2.3597         estimate D2E/DX2                !
 ! R86   R(38,39)                2.3531         estimate D2E/DX2                !
 ! R87   R(39,40)                2.5099         estimate D2E/DX2                !
 ! R88   R(39,41)                2.1102         estimate D2E/DX2                !
 ! R89   R(39,62)                2.4842         estimate D2E/DX2                !
 ! R90   R(40,62)                2.1151         estimate D2E/DX2                !
 ! R91   R(42,43)                2.4906         estimate D2E/DX2                !
 ! R92   R(42,44)                2.3956         estimate D2E/DX2                !
 ! R93   R(42,61)                2.1193         estimate D2E/DX2                !
 ! R94   R(43,45)                2.4857         estimate D2E/DX2                !
 ! R95   R(44,45)                2.4799         estimate D2E/DX2                !
 ! R96   R(45,46)                2.3847         estimate D2E/DX2                !
 ! R97   R(45,47)                2.1126         estimate D2E/DX2                !
 ! R98   R(45,48)                3.02           estimate D2E/DX2                !
 ! R99   R(46,48)                2.4201         estimate D2E/DX2                !
 ! R100  R(48,49)                2.4241         estimate D2E/DX2                !
 ! R101  R(48,50)                2.1178         estimate D2E/DX2                !
 ! R102  R(51,52)                2.382          estimate D2E/DX2                !
 ! R103  R(51,54)                2.9977         estimate D2E/DX2                !
 ! R104  R(51,60)                2.1224         estimate D2E/DX2                !
 ! R105  R(51,63)                2.5064         estimate D2E/DX2                !
 ! R106  R(52,54)                2.4105         estimate D2E/DX2                !
 ! R107  R(53,54)                2.1233         estimate D2E/DX2                !
 ! R108  R(54,55)                2.5072         estimate D2E/DX2                !
 ! R109  R(54,56)                2.4983         estimate D2E/DX2                !
 ! R110  R(54,57)                3.086          estimate D2E/DX2                !
 ! R111  R(55,57)                2.3006         estimate D2E/DX2                !
 ! R112  R(56,57)                2.3279         estimate D2E/DX2                !
 ! R113  R(57,58)                2.1174         estimate D2E/DX2                !
 ! R114  R(63,65)                1.3482         estimate D2E/DX2                !
 ! A1    A(2,1,3)               82.4891         estimate D2E/DX2                !
 ! A2    A(2,1,4)              135.6165         estimate D2E/DX2                !
 ! A3    A(2,1,5)               80.2945         estimate D2E/DX2                !
 ! A4    A(2,1,8)               82.178          estimate D2E/DX2                !
 ! A5    A(2,1,46)             134.22           estimate D2E/DX2                !
 ! A6    A(3,1,4)              134.9006         estimate D2E/DX2                !
 ! A7    A(3,1,5)              134.8984         estimate D2E/DX2                !
 ! A8    A(3,1,8)               81.4217         estimate D2E/DX2                !
 ! A9    A(3,1,46)              81.1691         estimate D2E/DX2                !
 ! A10   A(4,1,5)               83.2625         estimate D2E/DX2                !
 ! A11   A(4,1,8)               81.7815         estimate D2E/DX2                !
 ! A12   A(4,1,46)              82.8052         estimate D2E/DX2                !
 ! A13   A(5,1,8)              136.0587         estimate D2E/DX2                !
 ! A14   A(5,1,46)              81.7357         estimate D2E/DX2                !
 ! A15   A(8,1,46)             136.2858         estimate D2E/DX2                !
 ! A16   A(1,2,12)              82.8828         estimate D2E/DX2                !
 ! A17   A(1,2,21)              81.8266         estimate D2E/DX2                !
 ! A18   A(12,2,21)             83.9076         estimate D2E/DX2                !
 ! A19   A(1,3,45)              79.9457         estimate D2E/DX2                !
 ! A20   A(1,3,48)              79.6251         estimate D2E/DX2                !
 ! A21   A(1,4,6)               81.7836         estimate D2E/DX2                !
 ! A22   A(1,4,9)               81.8409         estimate D2E/DX2                !
 ! A23   A(6,4,9)               81.9879         estimate D2E/DX2                !
 ! A24   A(1,5,12)              83.0377         estimate D2E/DX2                !
 ! A25   A(1,5,21)              81.5963         estimate D2E/DX2                !
 ! A26   A(12,5,21)             83.8181         estimate D2E/DX2                !
 ! A27   A(4,6,7)               84.6601         estimate D2E/DX2                !
 ! A28   A(4,6,8)               82.0094         estimate D2E/DX2                !
 ! A29   A(4,6,16)             135.3518         estimate D2E/DX2                !
 ! A30   A(4,6,43)             135.5188         estimate D2E/DX2                !
 ! A31   A(4,6,44)              80.8207         estimate D2E/DX2                !
 ! A32   A(7,6,8)              135.9425         estimate D2E/DX2                !
 ! A33   A(7,6,16)              80.5178         estimate D2E/DX2                !
 ! A34   A(7,6,43)             129.6553         estimate D2E/DX2                !
 ! A35   A(7,6,44)              84.8125         estimate D2E/DX2                !
 ! A36   A(8,6,16)              80.1486         estimate D2E/DX2                !
 ! A37   A(8,6,43)              86.7766         estimate D2E/DX2                !
 ! A38   A(8,6,44)             133.3988         estimate D2E/DX2                !
 ! A39   A(16,6,43)             83.7956         estimate D2E/DX2                !
 ! A40   A(16,6,44)            138.4883         estimate D2E/DX2                !
 ! A41   A(43,6,44)             76.2467         estimate D2E/DX2                !
 ! A42   A(6,7,13)              82.9533         estimate D2E/DX2                !
 ! A43   A(6,7,18)              80.3493         estimate D2E/DX2                !
 ! A44   A(13,7,18)             82.0098         estimate D2E/DX2                !
 ! A45   A(1,8,6)               82.2564         estimate D2E/DX2                !
 ! A46   A(1,8,9)               82.0459         estimate D2E/DX2                !
 ! A47   A(6,8,9)               81.8801         estimate D2E/DX2                !
 ! A48   A(4,9,8)               80.8494         estimate D2E/DX2                !
 ! A49   A(4,9,10)              82.2753         estimate D2E/DX2                !
 ! A50   A(4,9,11)              82.5943         estimate D2E/DX2                !
 ! A51   A(4,9,15)             135.1075         estimate D2E/DX2                !
 ! A52   A(4,9,26)             135.3161         estimate D2E/DX2                !
 ! A53   A(8,9,10)             134.1815         estimate D2E/DX2                !
 ! A54   A(8,9,11)             134.7259         estimate D2E/DX2                !
 ! A55   A(8,9,15)              82.669          estimate D2E/DX2                !
 ! A56   A(8,9,26)              82.3842         estimate D2E/DX2                !
 ! A57   A(10,9,11)             84.1391         estimate D2E/DX2                !
 ! A58   A(10,9,15)            135.8871         estimate D2E/DX2                !
 ! A59   A(10,9,26)             80.4497         estimate D2E/DX2                !
 ! A60   A(11,9,15)             80.081          estimate D2E/DX2                !
 ! A61   A(11,9,26)            135.4815         estimate D2E/DX2                !
 ! A62   A(15,9,26)             82.6173         estimate D2E/DX2                !
 ! A63   A(9,10,13)             82.8784         estimate D2E/DX2                !
 ! A64   A(9,10,24)             81.1655         estimate D2E/DX2                !
 ! A65   A(13,10,24)            82.0583         estimate D2E/DX2                !
 ! A66   A(9,11,12)             82.71           estimate D2E/DX2                !
 ! A67   A(9,11,27)             83.4902         estimate D2E/DX2                !
 ! A68   A(12,11,27)            81.4663         estimate D2E/DX2                !
 ! A69   A(2,12,5)              80.1            estimate D2E/DX2                !
 ! A70   A(2,12,11)            134.6254         estimate D2E/DX2                !
 ! A71   A(2,12,14)             81.3231         estimate D2E/DX2                !
 ! A72   A(2,12,15)             81.9409         estimate D2E/DX2                !
 ! A73   A(2,12,52)            133.5165         estimate D2E/DX2                !
 ! A74   A(2,12,54)            130.3858         estimate D2E/DX2                !
 ! A75   A(5,12,11)             82.7146         estimate D2E/DX2                !
 ! A76   A(5,12,14)            133.7144         estimate D2E/DX2                !
 ! A77   A(5,12,15)            135.1124         estimate D2E/DX2                !
 ! A78   A(5,12,52)             81.0902         estimate D2E/DX2                !
 ! A79   A(5,12,54)            130.2747         estimate D2E/DX2                !
 ! A80   A(11,12,14)           137.2506         estimate D2E/DX2                !
 ! A81   A(11,12,15)            81.3805         estimate D2E/DX2                !
 ! A82   A(11,12,52)            83.8421         estimate D2E/DX2                !
 ! A83   A(11,12,54)            92.1171         estimate D2E/DX2                !
 ! A84   A(14,12,15)            82.8109         estimate D2E/DX2                !
 ! A85   A(14,12,52)            81.8113         estimate D2E/DX2                !
 ! A86   A(15,12,52)           137.8001         estimate D2E/DX2                !
 ! A87   A(15,12,54)            92.0631         estimate D2E/DX2                !
 ! A88   A(7,13,10)             82.1652         estimate D2E/DX2                !
 ! A89   A(7,13,16)             81.0786         estimate D2E/DX2                !
 ! A90   A(7,13,26)            135.3071         estimate D2E/DX2                !
 ! A91   A(7,13,37)             81.9535         estimate D2E/DX2                !
 ! A92   A(7,13,38)            137.0935         estimate D2E/DX2                !
 ! A93   A(10,13,16)           133.0633         estimate D2E/DX2                !
 ! A94   A(10,13,26)            81.1272         estimate D2E/DX2                !
 ! A95   A(10,13,37)            84.3686         estimate D2E/DX2                !
 ! A96   A(10,13,38)           134.8785         estimate D2E/DX2                !
 ! A97   A(16,13,26)            80.8015         estimate D2E/DX2                !
 ! A98   A(16,13,37)           135.4255         estimate D2E/DX2                !
 ! A99   A(16,13,38)            83.3695         estimate D2E/DX2                !
 ! A100  A(26,13,37)           136.6134         estimate D2E/DX2                !
 ! A101  A(26,13,38)            80.2522         estimate D2E/DX2                !
 ! A102  A(37,13,38)            81.7144         estimate D2E/DX2                !
 ! A103  A(12,14,51)            80.5287         estimate D2E/DX2                !
 ! A104  A(9,15,12)             82.8914         estimate D2E/DX2                !
 ! A105  A(9,15,27)             83.2853         estimate D2E/DX2                !
 ! A106  A(12,15,27)            81.4084         estimate D2E/DX2                !
 ! A107  A(6,16,13)             82.9022         estimate D2E/DX2                !
 ! A108  A(6,16,18)             81.2389         estimate D2E/DX2                !
 ! A109  A(13,16,18)            82.5407         estimate D2E/DX2                !
 ! A110  A(24,17,33)            81.2753         estimate D2E/DX2                !
 ! A111  A(24,17,36)            82.1202         estimate D2E/DX2                !
 ! A112  A(33,17,36)            89.1471         estimate D2E/DX2                !
 ! A113  A(7,18,16)             82.8986         estimate D2E/DX2                !
 ! A114  A(7,18,19)             79.7469         estimate D2E/DX2                !
 ! A115  A(7,18,20)            138.2777         estimate D2E/DX2                !
 ! A116  A(7,18,40)             99.9177         estimate D2E/DX2                !
 ! A117  A(7,18,42)             88.2755         estimate D2E/DX2                !
 ! A118  A(7,18,62)            132.9978         estimate D2E/DX2                !
 ! A119  A(16,18,19)           139.8532         estimate D2E/DX2                !
 ! A120  A(16,18,20)            88.6444         estimate D2E/DX2                !
 ! A121  A(16,18,40)           132.8491         estimate D2E/DX2                !
 ! A122  A(16,18,42)            98.2211         estimate D2E/DX2                !
 ! A123  A(16,18,62)            94.3292         estimate D2E/DX2                !
 ! A124  A(19,18,20)            80.9808         estimate D2E/DX2                !
 ! A125  A(19,18,40)            85.9332         estimate D2E/DX2                !
 ! A126  A(19,18,62)           123.7142         estimate D2E/DX2                !
 ! A127  A(20,18,40)           115.2022         estimate D2E/DX2                !
 ! A128  A(20,18,62)            88.2297         estimate D2E/DX2                !
 ! A129  A(40,18,42)           128.7884         estimate D2E/DX2                !
 ! A130  A(42,18,62)           138.1411         estimate D2E/DX2                !
 ! A131  A(2,21,5)              80.6906         estimate D2E/DX2                !
 ! A132  A(2,21,22)             83.3243         estimate D2E/DX2                !
 ! A133  A(2,21,23)             82.8132         estimate D2E/DX2                !
 ! A134  A(2,21,49)            137.3879         estimate D2E/DX2                !
 ! A135  A(2,21,63)            135.3004         estimate D2E/DX2                !
 ! A136  A(5,21,22)            134.0531         estimate D2E/DX2                !
 ! A137  A(5,21,23)            137.2063         estimate D2E/DX2                !
 ! A138  A(5,21,49)             83.1373         estimate D2E/DX2                !
 ! A139  A(5,21,63)             86.9763         estimate D2E/DX2                !
 ! A140  A(22,21,23)            82.127          estimate D2E/DX2                !
 ! A141  A(22,21,49)           133.6861         estimate D2E/DX2                !
 ! A142  A(22,21,63)            75.0072         estimate D2E/DX2                !
 ! A143  A(23,21,49)            82.9094         estimate D2E/DX2                !
 ! A144  A(23,21,63)           130.5978         estimate D2E/DX2                !
 ! A145  A(49,21,63)            82.3825         estimate D2E/DX2                !
 ! A146  A(21,22,51)            81.1027         estimate D2E/DX2                !
 ! A147  A(21,22,64)            96.6463         estimate D2E/DX2                !
 ! A148  A(51,22,64)            98.0832         estimate D2E/DX2                !
 ! A149  A(21,23,48)            81.9428         estimate D2E/DX2                !
 ! A150  A(10,24,17)           136.8293         estimate D2E/DX2                !
 ! A151  A(10,24,25)            81.4448         estimate D2E/DX2                !
 ! A152  A(10,24,26)            81.962          estimate D2E/DX2                !
 ! A153  A(10,24,28)            84.3823         estimate D2E/DX2                !
 ! A154  A(10,24,29)           135.3947         estimate D2E/DX2                !
 ! A155  A(17,24,25)            76.367          estimate D2E/DX2                !
 ! A156  A(17,24,26)            87.1952         estimate D2E/DX2                !
 ! A157  A(17,24,28)           129.0127         estimate D2E/DX2                !
 ! A158  A(17,24,29)            82.9886         estimate D2E/DX2                !
 ! A159  A(25,24,26)           133.6318         estimate D2E/DX2                !
 ! A160  A(25,24,28)            84.8638         estimate D2E/DX2                !
 ! A161  A(25,24,29)           137.2503         estimate D2E/DX2                !
 ! A162  A(26,24,28)           135.7704         estimate D2E/DX2                !
 ! A163  A(26,24,29)            81.1541         estimate D2E/DX2                !
 ! A164  A(28,24,29)            79.7108         estimate D2E/DX2                !
 ! A165  A(24,25,33)            82.1242         estimate D2E/DX2                !
 ! A166  A(24,25,36)            81.5311         estimate D2E/DX2                !
 ! A167  A(33,25,36)            91.3569         estimate D2E/DX2                !
 ! A168  A(9,26,13)             83.4085         estimate D2E/DX2                !
 ! A169  A(9,26,24)             81.3414         estimate D2E/DX2                !
 ! A170  A(13,26,24)            82.5719         estimate D2E/DX2                !
 ! A171  A(11,27,15)            80.8647         estimate D2E/DX2                !
 ! A172  A(11,27,28)            82.3376         estimate D2E/DX2                !
 ! A173  A(11,27,29)           132.4764         estimate D2E/DX2                !
 ! A174  A(11,27,30)           131.708          estimate D2E/DX2                !
 ! A175  A(11,27,55)            83.1607         estimate D2E/DX2                !
 ! A176  A(11,27,56)           136.5594         estimate D2E/DX2                !
 ! A177  A(15,27,28)           133.8502         estimate D2E/DX2                !
 ! A178  A(15,27,29)            79.4383         estimate D2E/DX2                !
 ! A179  A(15,27,30)           128.006          estimate D2E/DX2                !
 ! A180  A(15,27,55)           135.4955         estimate D2E/DX2                !
 ! A181  A(15,27,56)            84.2942         estimate D2E/DX2                !
 ! A182  A(28,27,29)            81.0508         estimate D2E/DX2                !
 ! A183  A(28,27,55)            83.9974         estimate D2E/DX2                !
 ! A184  A(28,27,56)           134.1192         estimate D2E/DX2                !
 ! A185  A(29,27,55)           138.1734         estimate D2E/DX2                !
 ! A186  A(29,27,56)            83.5043         estimate D2E/DX2                !
 ! A187  A(30,27,55)            92.9771         estimate D2E/DX2                !
 ! A188  A(30,27,56)            88.8985         estimate D2E/DX2                !
 ! A189  A(55,27,56)            79.4553         estimate D2E/DX2                !
 ! A190  A(24,28,27)            83.7384         estimate D2E/DX2                !
 ! A191  A(24,28,30)            81.297          estimate D2E/DX2                !
 ! A192  A(24,29,27)            84.1823         estimate D2E/DX2                !
 ! A193  A(24,29,30)            82.6032         estimate D2E/DX2                !
 ! A194  A(27,30,31)            98.0699         estimate D2E/DX2                !
 ! A195  A(27,30,32)           137.9506         estimate D2E/DX2                !
 ! A196  A(27,30,33)           124.6214         estimate D2E/DX2                !
 ! A197  A(27,30,34)           129.0303         estimate D2E/DX2                !
 ! A198  A(28,30,29)            82.8589         estimate D2E/DX2                !
 ! A199  A(28,30,31)           107.1649         estimate D2E/DX2                !
 ! A200  A(28,30,32)           138.7097         estimate D2E/DX2                !
 ! A201  A(28,30,33)            88.2434         estimate D2E/DX2                !
 ! A202  A(28,30,34)            79.213          estimate D2E/DX2                !
 ! A203  A(29,30,31)           129.3226         estimate D2E/DX2                !
 ! A204  A(29,30,32)            87.6136         estimate D2E/DX2                !
 ! A205  A(29,30,33)            96.9282         estimate D2E/DX2                !
 ! A206  A(29,30,34)           138.7319         estimate D2E/DX2                !
 ! A207  A(31,30,32)           109.8394         estimate D2E/DX2                !
 ! A208  A(31,30,33)           132.0369         estimate D2E/DX2                !
 ! A209  A(31,30,34)            91.5841         estimate D2E/DX2                !
 ! A210  A(32,30,34)            82.077          estimate D2E/DX2                !
 ! A211  A(30,31,57)            94.7645         estimate D2E/DX2                !
 ! A212  A(17,33,25)            78.7755         estimate D2E/DX2                !
 ! A213  A(17,33,30)            87.3476         estimate D2E/DX2                !
 ! A214  A(17,33,32)            77.6683         estimate D2E/DX2                !
 ! A215  A(17,33,34)           138.0857         estimate D2E/DX2                !
 ! A216  A(17,33,59)           116.6057         estimate D2E/DX2                !
 ! A217  A(25,33,30)            97.9646         estimate D2E/DX2                !
 ! A218  A(25,33,32)           138.0479         estimate D2E/DX2                !
 ! A219  A(25,33,34)            92.5394         estimate D2E/DX2                !
 ! A220  A(25,33,59)           114.648          estimate D2E/DX2                !
 ! A221  A(30,33,59)           142.0228         estimate D2E/DX2                !
 ! A222  A(32,33,34)            82.6127         estimate D2E/DX2                !
 ! A223  A(32,33,59)           106.8715         estimate D2E/DX2                !
 ! A224  A(34,33,59)           104.3636         estimate D2E/DX2                !
 ! A225  A(17,36,25)            77.906          estimate D2E/DX2                !
 ! A226  A(17,36,35)           102.2301         estimate D2E/DX2                !
 ! A227  A(17,36,37)           141.5224         estimate D2E/DX2                !
 ! A228  A(17,36,38)            84.7874         estimate D2E/DX2                !
 ! A229  A(17,36,39)           136.142          estimate D2E/DX2                !
 ! A230  A(25,36,35)           104.1549         estimate D2E/DX2                !
 ! A231  A(25,36,37)            82.4653         estimate D2E/DX2                !
 ! A232  A(25,36,38)           138.5877         estimate D2E/DX2                !
 ! A233  A(25,36,39)           133.9504         estimate D2E/DX2                !
 ! A234  A(35,36,37)           114.5758         estimate D2E/DX2                !
 ! A235  A(35,36,38)           116.2359         estimate D2E/DX2                !
 ! A236  A(35,36,39)            97.4465         estimate D2E/DX2                !
 ! A237  A(37,36,38)            88.6314         estimate D2E/DX2                !
 ! A238  A(13,37,36)            78.3555         estimate D2E/DX2                !
 ! A239  A(13,37,39)            79.5117         estimate D2E/DX2                !
 ! A240  A(13,38,36)            78.0416         estimate D2E/DX2                !
 ! A241  A(13,38,39)            79.2588         estimate D2E/DX2                !
 ! A242  A(36,39,40)           149.8465         estimate D2E/DX2                !
 ! A243  A(36,39,41)            95.865          estimate D2E/DX2                !
 ! A244  A(36,39,62)           146.3782         estimate D2E/DX2                !
 ! A245  A(37,39,38)            91.7257         estimate D2E/DX2                !
 ! A246  A(37,39,40)            96.7496         estimate D2E/DX2                !
 ! A247  A(37,39,41)           115.2803         estimate D2E/DX2                !
 ! A248  A(37,39,62)           133.9464         estimate D2E/DX2                !
 ! A249  A(38,39,40)           134.0941         estimate D2E/DX2                !
 ! A250  A(38,39,41)           114.3624         estimate D2E/DX2                !
 ! A251  A(38,39,62)            93.3422         estimate D2E/DX2                !
 ! A252  A(40,39,41)           102.3734         estimate D2E/DX2                !
 ! A253  A(41,39,62)           103.9371         estimate D2E/DX2                !
 ! A254  A(18,40,39)            87.7471         estimate D2E/DX2                !
 ! A255  A(18,42,43)            86.4982         estimate D2E/DX2                !
 ! A256  A(18,42,44)            97.363          estimate D2E/DX2                !
 ! A257  A(18,42,61)           142.4119         estimate D2E/DX2                !
 ! A258  A(19,42,20)            82.4914         estimate D2E/DX2                !
 ! A259  A(19,42,43)           138.0895         estimate D2E/DX2                !
 ! A260  A(19,42,44)            92.7812         estimate D2E/DX2                !
 ! A261  A(19,42,61)           104.9122         estimate D2E/DX2                !
 ! A262  A(20,42,43)            76.6715         estimate D2E/DX2                !
 ! A263  A(20,42,44)           137.4461         estimate D2E/DX2                !
 ! A264  A(20,42,61)           106.3743         estimate D2E/DX2                !
 ! A265  A(43,42,44)            79.3915         estimate D2E/DX2                !
 ! A266  A(43,42,61)           115.6574         estimate D2E/DX2                !
 ! A267  A(44,42,61)           115.6338         estimate D2E/DX2                !
 ! A268  A(6,43,42)             81.1948         estimate D2E/DX2                !
 ! A269  A(6,43,45)             83.1212         estimate D2E/DX2                !
 ! A270  A(42,43,45)            87.8905         estimate D2E/DX2                !
 ! A271  A(6,44,42)             82.3485         estimate D2E/DX2                !
 ! A272  A(6,44,45)             82.5381         estimate D2E/DX2                !
 ! A273  A(42,44,45)            90.1779         estimate D2E/DX2                !
 ! A274  A(3,45,43)             83.8705         estimate D2E/DX2                !
 ! A275  A(3,45,44)            136.6984         estimate D2E/DX2                !
 ! A276  A(3,45,46)             88.1478         estimate D2E/DX2                !
 ! A277  A(3,45,47)            114.2987         estimate D2E/DX2                !
 ! A278  A(43,45,44)            77.902          estimate D2E/DX2                !
 ! A279  A(43,45,46)           138.8002         estimate D2E/DX2                !
 ! A280  A(43,45,47)           106.6972         estimate D2E/DX2                !
 ! A281  A(43,45,48)           135.6203         estimate D2E/DX2                !
 ! A282  A(44,45,46)            80.7689         estimate D2E/DX2                !
 ! A283  A(44,45,47)           108.5017         estimate D2E/DX2                !
 ! A284  A(44,45,48)           132.3156         estimate D2E/DX2                !
 ! A285  A(46,45,47)           113.3831         estimate D2E/DX2                !
 ! A286  A(47,45,48)            93.9265         estimate D2E/DX2                !
 ! A287  A(1,46,45)             80.0682         estimate D2E/DX2                !
 ! A288  A(1,46,48)             79.8545         estimate D2E/DX2                !
 ! A289  A(3,48,23)             81.4609         estimate D2E/DX2                !
 ! A290  A(3,48,46)             86.4065         estimate D2E/DX2                !
 ! A291  A(3,48,49)            137.4584         estimate D2E/DX2                !
 ! A292  A(3,48,50)            118.926          estimate D2E/DX2                !
 ! A293  A(23,48,45)           131.949          estimate D2E/DX2                !
 ! A294  A(23,48,46)           136.7872         estimate D2E/DX2                !
 ! A295  A(23,48,49)            80.4701         estimate D2E/DX2                !
 ! A296  A(23,48,50)           102.6768         estimate D2E/DX2                !
 ! A297  A(45,48,49)           131.6231         estimate D2E/DX2                !
 ! A298  A(45,48,50)           102.6084         estimate D2E/DX2                !
 ! A299  A(46,48,49)            81.1054         estimate D2E/DX2                !
 ! A300  A(46,48,50)           119.3589         estimate D2E/DX2                !
 ! A301  A(49,48,50)           102.5127         estimate D2E/DX2                !
 ! A302  A(21,49,48)            81.9465         estimate D2E/DX2                !
 ! A303  A(14,51,22)            81.6621         estimate D2E/DX2                !
 ! A304  A(14,51,52)            88.5669         estimate D2E/DX2                !
 ! A305  A(14,51,60)           118.4104         estimate D2E/DX2                !
 ! A306  A(14,51,63)           139.0227         estimate D2E/DX2                !
 ! A307  A(22,51,52)           138.6868         estimate D2E/DX2                !
 ! A308  A(22,51,54)           133.2271         estimate D2E/DX2                !
 ! A309  A(22,51,60)            99.5294         estimate D2E/DX2                !
 ! A310  A(22,51,63)            76.4711         estimate D2E/DX2                !
 ! A311  A(52,51,60)           120.1506         estimate D2E/DX2                !
 ! A312  A(52,51,63)            85.6491         estimate D2E/DX2                !
 ! A313  A(54,51,60)           103.1932         estimate D2E/DX2                !
 ! A314  A(54,51,63)           137.3434         estimate D2E/DX2                !
 ! A315  A(60,51,63)            99.2659         estimate D2E/DX2                !
 ! A316  A(12,52,51)            80.5836         estimate D2E/DX2                !
 ! A317  A(12,54,51)            62.8293         estimate D2E/DX2                !
 ! A318  A(12,54,53)           147.9345         estimate D2E/DX2                !
 ! A319  A(12,54,55)            93.7246         estimate D2E/DX2                !
 ! A320  A(12,54,56)            93.7197         estimate D2E/DX2                !
 ! A321  A(12,54,57)           120.0866         estimate D2E/DX2                !
 ! A322  A(14,54,52)            87.4318         estimate D2E/DX2                !
 ! A323  A(14,54,53)           107.4342         estimate D2E/DX2                !
 ! A324  A(14,54,55)           143.066          estimate D2E/DX2                !
 ! A325  A(14,54,56)            83.3442         estimate D2E/DX2                !
 ! A326  A(14,54,57)           131.2034         estimate D2E/DX2                !
 ! A327  A(51,54,53)            85.1053         estimate D2E/DX2                !
 ! A328  A(51,54,55)           133.1029         estimate D2E/DX2                !
 ! A329  A(51,54,56)           134.2348         estimate D2E/DX2                !
 ! A330  A(52,54,53)           107.2555         estimate D2E/DX2                !
 ! A331  A(52,54,55)            82.3558         estimate D2E/DX2                !
 ! A332  A(52,54,56)           142.5209         estimate D2E/DX2                !
 ! A333  A(52,54,57)           129.5414         estimate D2E/DX2                !
 ! A334  A(53,54,55)           109.4951         estimate D2E/DX2                !
 ! A335  A(53,54,56)           110.1738         estimate D2E/DX2                !
 ! A336  A(53,54,57)            91.9719         estimate D2E/DX2                !
 ! A337  A(55,54,56)            83.568          estimate D2E/DX2                !
 ! A338  A(27,55,54)            77.3396         estimate D2E/DX2                !
 ! A339  A(27,55,57)            79.3272         estimate D2E/DX2                !
 ! A340  A(27,56,54)            78.8129         estimate D2E/DX2                !
 ! A341  A(27,56,57)            80.3297         estimate D2E/DX2                !
 ! A342  A(31,57,54)           158.8934         estimate D2E/DX2                !
 ! A343  A(31,57,55)           110.5566         estimate D2E/DX2                !
 ! A344  A(31,57,56)           122.9745         estimate D2E/DX2                !
 ! A345  A(31,57,58)           105.9974         estimate D2E/DX2                !
 ! A346  A(54,57,58)            93.7353         estimate D2E/DX2                !
 ! A347  A(55,57,56)            92.2054         estimate D2E/DX2                !
 ! A348  A(55,57,58)           112.9167         estimate D2E/DX2                !
 ! A349  A(56,57,58)           111.8215         estimate D2E/DX2                !
 ! A350  A(18,62,39)            87.9775         estimate D2E/DX2                !
 ! A351  A(21,63,51)            82.1599         estimate D2E/DX2                !
 ! A352  A(21,63,65)           101.836          estimate D2E/DX2                !
 ! A353  A(51,63,65)           102.4036         estimate D2E/DX2                !
 ! A354  L(51,54,57,12,-1)     182.9159         estimate D2E/DX2                !
 ! A355  L(51,54,57,12,-2)     181.1204         estimate D2E/DX2                !
 ! D1    D(3,1,2,12)          -179.9967         estimate D2E/DX2                !
 ! D2    D(3,1,2,21)            95.1738         estimate D2E/DX2                !
 ! D3    D(4,1,2,12)           -27.966          estimate D2E/DX2                !
 ! D4    D(4,1,2,21)          -112.7954         estimate D2E/DX2                !
 ! D5    D(5,1,2,12)            41.8571         estimate D2E/DX2                !
 ! D6    D(5,1,2,21)           -42.9723         estimate D2E/DX2                !
 ! D7    D(8,1,2,12)           -97.6832         estimate D2E/DX2                !
 ! D8    D(8,1,2,21)           177.4873         estimate D2E/DX2                !
 ! D9    D(46,1,2,12)          110.1466         estimate D2E/DX2                !
 ! D10   D(46,1,2,21)           25.3171         estimate D2E/DX2                !
 ! D11   D(2,1,3,45)          -175.9044         estimate D2E/DX2                !
 ! D12   D(2,1,3,48)           -96.6954         estimate D2E/DX2                !
 ! D13   D(4,1,3,45)            31.6843         estimate D2E/DX2                !
 ! D14   D(4,1,3,48)           110.8933         estimate D2E/DX2                !
 ! D15   D(5,1,3,45)          -107.7084         estimate D2E/DX2                !
 ! D16   D(5,1,3,48)           -28.4995         estimate D2E/DX2                !
 ! D17   D(8,1,3,45)           100.9264         estimate D2E/DX2                !
 ! D18   D(8,1,3,48)          -179.8646         estimate D2E/DX2                !
 ! D19   D(46,1,3,45)          -38.8187         estimate D2E/DX2                !
 ! D20   D(46,1,3,48)           40.3902         estimate D2E/DX2                !
 ! D21   D(2,1,4,6)           -110.8316         estimate D2E/DX2                !
 ! D22   D(2,1,4,9)            -27.8141         estimate D2E/DX2                !
 ! D23   D(3,1,4,6)             28.1399         estimate D2E/DX2                !
 ! D24   D(3,1,4,9)            111.1574         estimate D2E/DX2                !
 ! D25   D(5,1,4,6)           -179.5222         estimate D2E/DX2                !
 ! D26   D(5,1,4,9)            -96.5047         estimate D2E/DX2                !
 ! D27   D(8,1,4,6)            -40.9626         estimate D2E/DX2                !
 ! D28   D(8,1,4,9)             42.0549         estimate D2E/DX2                !
 ! D29   D(46,1,4,6)            98.0038         estimate D2E/DX2                !
 ! D30   D(46,1,4,9)          -178.9787         estimate D2E/DX2                !
 ! D31   D(2,1,5,12)           -41.9925         estimate D2E/DX2                !
 ! D32   D(2,1,5,21)            42.7506         estimate D2E/DX2                !
 ! D33   D(3,1,5,12)          -111.0372         estimate D2E/DX2                !
 ! D34   D(3,1,5,21)           -26.2941         estimate D2E/DX2                !
 ! D35   D(4,1,5,12)            96.6238         estimate D2E/DX2                !
 ! D36   D(4,1,5,21)          -178.6332         estimate D2E/DX2                !
 ! D37   D(8,1,5,12)            25.8937         estimate D2E/DX2                !
 ! D38   D(8,1,5,21)           110.6367         estimate D2E/DX2                !
 ! D39   D(46,1,5,12)         -179.7076         estimate D2E/DX2                !
 ! D40   D(46,1,5,21)          -94.9646         estimate D2E/DX2                !
 ! D41   D(2,1,8,6)            179.4618         estimate D2E/DX2                !
 ! D42   D(2,1,8,9)             96.6385         estimate D2E/DX2                !
 ! D43   D(3,1,8,6)            -97.0099         estimate D2E/DX2                !
 ! D44   D(3,1,8,9)           -179.8332         estimate D2E/DX2                !
 ! D45   D(4,1,8,6)             40.9829         estimate D2E/DX2                !
 ! D46   D(4,1,8,9)            -41.8405         estimate D2E/DX2                !
 ! D47   D(5,1,8,6)            112.278          estimate D2E/DX2                !
 ! D48   D(5,1,8,9)             29.4546         estimate D2E/DX2                !
 ! D49   D(46,1,8,6)           -29.4946         estimate D2E/DX2                !
 ! D50   D(46,1,8,9)          -112.3179         estimate D2E/DX2                !
 ! D51   D(2,1,46,45)          109.2094         estimate D2E/DX2                !
 ! D52   D(2,1,46,48)           29.879          estimate D2E/DX2                !
 ! D53   D(3,1,46,45)           38.8286         estimate D2E/DX2                !
 ! D54   D(3,1,46,48)          -40.5018         estimate D2E/DX2                !
 ! D55   D(4,1,46,45)          -98.8712         estimate D2E/DX2                !
 ! D56   D(4,1,46,48)         -178.2016         estimate D2E/DX2                !
 ! D57   D(5,1,46,45)          176.9346         estimate D2E/DX2                !
 ! D58   D(5,1,46,48)           97.6042         estimate D2E/DX2                !
 ! D59   D(8,1,46,45)          -28.7803         estimate D2E/DX2                !
 ! D60   D(8,1,46,48)         -108.1107         estimate D2E/DX2                !
 ! D61   D(1,2,12,5)           -41.8578         estimate D2E/DX2                !
 ! D62   D(1,2,12,11)           27.4632         estimate D2E/DX2                !
 ! D63   D(1,2,12,14)         -179.2721         estimate D2E/DX2                !
 ! D64   D(1,2,12,15)           96.827          estimate D2E/DX2                !
 ! D65   D(1,2,12,52)         -109.3679         estimate D2E/DX2                !
 ! D66   D(1,2,12,54)         -177.3427         estimate D2E/DX2                !
 ! D67   D(21,2,12,5)           40.6287         estimate D2E/DX2                !
 ! D68   D(21,2,12,11)         109.9496         estimate D2E/DX2                !
 ! D69   D(21,2,12,14)         -96.7856         estimate D2E/DX2                !
 ! D70   D(21,2,12,15)         179.3134         estimate D2E/DX2                !
 ! D71   D(21,2,12,52)         -26.8814         estimate D2E/DX2                !
 ! D72   D(21,2,12,54)         -94.8563         estimate D2E/DX2                !
 ! D73   D(1,2,21,5)            42.9996         estimate D2E/DX2                !
 ! D74   D(1,2,21,22)          179.7689         estimate D2E/DX2                !
 ! D75   D(1,2,21,23)          -97.3683         estimate D2E/DX2                !
 ! D76   D(1,2,21,49)          -26.0819         estimate D2E/DX2                !
 ! D77   D(1,2,21,63)          119.016          estimate D2E/DX2                !
 ! D78   D(12,2,21,5)          -40.6532         estimate D2E/DX2                !
 ! D79   D(12,2,21,22)          96.116          estimate D2E/DX2                !
 ! D80   D(12,2,21,23)         178.9788         estimate D2E/DX2                !
 ! D81   D(12,2,21,49)        -109.7348         estimate D2E/DX2                !
 ! D82   D(12,2,21,63)          35.3631         estimate D2E/DX2                !
 ! D83   D(1,3,45,43)          -98.049          estimate D2E/DX2                !
 ! D84   D(1,3,45,44)          -32.9655         estimate D2E/DX2                !
 ! D85   D(1,3,45,46)           41.4692         estimate D2E/DX2                !
 ! D86   D(1,3,45,47)          156.372          estimate D2E/DX2                !
 ! D87   D(1,3,48,23)           95.9121         estimate D2E/DX2                !
 ! D88   D(1,3,48,46)          -42.4939         estimate D2E/DX2                !
 ! D89   D(1,3,48,49)           30.1945         estimate D2E/DX2                !
 ! D90   D(1,3,48,50)         -164.2672         estimate D2E/DX2                !
 ! D91   D(1,4,6,7)            178.7895         estimate D2E/DX2                !
 ! D92   D(1,4,6,8)             40.8899         estimate D2E/DX2                !
 ! D93   D(1,4,6,16)           108.0624         estimate D2E/DX2                !
 ! D94   D(1,4,6,43)           -36.1675         estimate D2E/DX2                !
 ! D95   D(1,4,6,44)           -95.62           estimate D2E/DX2                !
 ! D96   D(9,4,6,7)             95.9404         estimate D2E/DX2                !
 ! D97   D(9,4,6,8)            -41.9592         estimate D2E/DX2                !
 ! D98   D(9,4,6,16)            25.2134         estimate D2E/DX2                !
 ! D99   D(9,4,6,43)          -119.0165         estimate D2E/DX2                !
 ! D100  D(9,4,6,44)          -178.469          estimate D2E/DX2                !
 ! D101  D(1,4,9,8)            -41.4017         estimate D2E/DX2                !
 ! D102  D(1,4,9,10)          -178.6441         estimate D2E/DX2                !
 ! D103  D(1,4,9,11)            96.3058         estimate D2E/DX2                !
 ! D104  D(1,4,9,15)            28.4281         estimate D2E/DX2                !
 ! D105  D(1,4,9,26)          -110.684          estimate D2E/DX2                !
 ! D106  D(6,4,9,8)             41.3819         estimate D2E/DX2                !
 ! D107  D(6,4,9,10)           -95.8604         estimate D2E/DX2                !
 ! D108  D(6,4,9,11)           179.0895         estimate D2E/DX2                !
 ! D109  D(6,4,9,15)           111.2117         estimate D2E/DX2                !
 ! D110  D(6,4,9,26)           -27.9003         estimate D2E/DX2                !
 ! D111  D(1,5,12,2)            41.8451         estimate D2E/DX2                !
 ! D112  D(1,5,12,11)          -95.989          estimate D2E/DX2                !
 ! D113  D(1,5,12,14)          109.5892         estimate D2E/DX2                !
 ! D114  D(1,5,12,15)          -26.0148         estimate D2E/DX2                !
 ! D115  D(1,5,12,52)          179.1413         estimate D2E/DX2                !
 ! D116  D(1,5,12,54)          177.4226         estimate D2E/DX2                !
 ! D117  D(21,5,12,2)          -40.404          estimate D2E/DX2                !
 ! D118  D(21,5,12,11)        -178.2381         estimate D2E/DX2                !
 ! D119  D(21,5,12,14)          27.3401         estimate D2E/DX2                !
 ! D120  D(21,5,12,15)        -108.264          estimate D2E/DX2                !
 ! D121  D(21,5,12,52)          96.8922         estimate D2E/DX2                !
 ! D122  D(21,5,12,54)          95.1735         estimate D2E/DX2                !
 ! D123  D(1,5,21,2)           -43.0356         estimate D2E/DX2                !
 ! D124  D(1,5,21,22)         -114.2211         estimate D2E/DX2                !
 ! D125  D(1,5,21,23)           25.6387         estimate D2E/DX2                !
 ! D126  D(1,5,21,49)           97.398          estimate D2E/DX2                !
 ! D127  D(1,5,21,63)         -179.9181         estimate D2E/DX2                !
 ! D128  D(12,5,21,2)           40.8078         estimate D2E/DX2                !
 ! D129  D(12,5,21,22)         -30.3778         estimate D2E/DX2                !
 ! D130  D(12,5,21,23)         109.4821         estimate D2E/DX2                !
 ! D131  D(12,5,21,49)        -178.7586         estimate D2E/DX2                !
 ! D132  D(12,5,21,63)         -96.0747         estimate D2E/DX2                !
 ! D133  D(4,6,7,13)           -96.4969         estimate D2E/DX2                !
 ! D134  D(4,6,7,18)          -179.544          estimate D2E/DX2                !
 ! D135  D(8,6,7,13)           -23.7968         estimate D2E/DX2                !
 ! D136  D(8,6,7,18)          -106.8439         estimate D2E/DX2                !
 ! D137  D(16,6,7,13)           41.2384         estimate D2E/DX2                !
 ! D138  D(16,6,7,18)          -41.8087         estimate D2E/DX2                !
 ! D139  D(43,6,7,13)          114.9324         estimate D2E/DX2                !
 ! D140  D(43,6,7,18)           31.8853         estimate D2E/DX2                !
 ! D141  D(44,6,7,13)         -177.7312         estimate D2E/DX2                !
 ! D142  D(44,6,7,18)           99.2216         estimate D2E/DX2                !
 ! D143  D(4,6,8,1)            -41.2268         estimate D2E/DX2                !
 ! D144  D(4,6,8,9)             41.785          estimate D2E/DX2                !
 ! D145  D(7,6,8,1)           -114.9539         estimate D2E/DX2                !
 ! D146  D(7,6,8,9)            -31.9421         estimate D2E/DX2                !
 ! D147  D(16,6,8,1)           179.8754         estimate D2E/DX2                !
 ! D148  D(16,6,8,9)           -97.1128         estimate D2E/DX2                !
 ! D149  D(43,6,8,1)            95.6196         estimate D2E/DX2                !
 ! D150  D(43,6,8,9)           178.6314         estimate D2E/DX2                !
 ! D151  D(44,6,8,1)            28.0138         estimate D2E/DX2                !
 ! D152  D(44,6,8,9)           111.0256         estimate D2E/DX2                !
 ! D153  D(4,6,16,13)           31.3129         estimate D2E/DX2                !
 ! D154  D(4,6,16,18)          114.8143         estimate D2E/DX2                !
 ! D155  D(7,6,16,13)          -41.0282         estimate D2E/DX2                !
 ! D156  D(7,6,16,18)           42.4732         estimate D2E/DX2                !
 ! D157  D(8,6,16,13)           99.1916         estimate D2E/DX2                !
 ! D158  D(8,6,16,18)         -177.307          estimate D2E/DX2                !
 ! D159  D(43,6,16,13)        -173.0164         estimate D2E/DX2                !
 ! D160  D(43,6,16,18)         -89.515          estimate D2E/DX2                !
 ! D161  D(44,6,16,13)        -111.9404         estimate D2E/DX2                !
 ! D162  D(44,6,16,18)         -28.439          estimate D2E/DX2                !
 ! D163  D(4,6,43,42)         -105.0673         estimate D2E/DX2                !
 ! D164  D(4,6,43,45)          -16.1463         estimate D2E/DX2                !
 ! D165  D(7,6,43,42)           27.1181         estimate D2E/DX2                !
 ! D166  D(7,6,43,45)          116.0391         estimate D2E/DX2                !
 ! D167  D(8,6,43,42)          179.7689         estimate D2E/DX2                !
 ! D168  D(8,6,43,45)          -91.3101         estimate D2E/DX2                !
 ! D169  D(16,6,43,42)          99.3389         estimate D2E/DX2                !
 ! D170  D(16,6,43,45)        -171.7402         estimate D2E/DX2                !
 ! D171  D(44,6,43,42)         -43.9898         estimate D2E/DX2                !
 ! D172  D(44,6,43,45)          44.9312         estimate D2E/DX2                !
 ! D173  D(4,6,44,42)         -172.3555         estimate D2E/DX2                !
 ! D174  D(4,6,44,45)           96.4552         estimate D2E/DX2                !
 ! D175  D(7,6,44,42)          -86.9433         estimate D2E/DX2                !
 ! D176  D(7,6,44,45)         -178.1326         estimate D2E/DX2                !
 ! D177  D(8,6,44,42)          117.9245         estimate D2E/DX2                !
 ! D178  D(8,6,44,45)           26.7352         estimate D2E/DX2                !
 ! D179  D(16,6,44,42)         -17.5628         estimate D2E/DX2                !
 ! D180  D(16,6,44,45)        -108.7521         estimate D2E/DX2                !
 ! D181  D(43,6,44,42)          46.0512         estimate D2E/DX2                !
 ! D182  D(43,6,44,45)         -45.1381         estimate D2E/DX2                !
 ! D183  D(6,7,13,10)           94.7373         estimate D2E/DX2                !
 ! D184  D(6,7,13,16)          -41.2578         estimate D2E/DX2                !
 ! D185  D(6,7,13,26)           25.8658         estimate D2E/DX2                !
 ! D186  D(6,7,13,37)         -179.8849         estimate D2E/DX2                !
 ! D187  D(6,7,13,38)         -111.3462         estimate D2E/DX2                !
 ! D188  D(18,7,13,10)         175.9237         estimate D2E/DX2                !
 ! D189  D(18,7,13,16)          39.9285         estimate D2E/DX2                !
 ! D190  D(18,7,13,26)         107.0521         estimate D2E/DX2                !
 ! D191  D(18,7,13,37)         -98.6985         estimate D2E/DX2                !
 ! D192  D(18,7,13,38)         -30.1599         estimate D2E/DX2                !
 ! D193  D(6,7,18,16)           43.0698         estimate D2E/DX2                !
 ! D194  D(6,7,18,19)         -100.5733         estimate D2E/DX2                !
 ! D195  D(6,7,18,20)          -36.8201         estimate D2E/DX2                !
 ! D196  D(6,7,18,40)          175.4418         estimate D2E/DX2                !
 ! D197  D(6,7,18,42)          -55.4363         estimate D2E/DX2                !
 ! D198  D(6,7,18,62)          132.3733         estimate D2E/DX2                !
 ! D199  D(13,7,18,16)         -41.0879         estimate D2E/DX2                !
 ! D200  D(13,7,18,19)         175.269          estimate D2E/DX2                !
 ! D201  D(13,7,18,20)        -120.9779         estimate D2E/DX2                !
 ! D202  D(13,7,18,40)          91.284          estimate D2E/DX2                !
 ! D203  D(13,7,18,42)        -139.594          estimate D2E/DX2                !
 ! D204  D(13,7,18,62)          48.2155         estimate D2E/DX2                !
 ! D205  D(1,8,9,4)             41.7781         estimate D2E/DX2                !
 ! D206  D(1,8,9,10)           111.5115         estimate D2E/DX2                !
 ! D207  D(1,8,9,11)           -28.1438         estimate D2E/DX2                !
 ! D208  D(1,8,9,15)           -96.3125         estimate D2E/DX2                !
 ! D209  D(1,8,9,26)          -179.7951         estimate D2E/DX2                !
 ! D210  D(6,8,9,4)            -41.4745         estimate D2E/DX2                !
 ! D211  D(6,8,9,10)            28.2589         estimate D2E/DX2                !
 ! D212  D(6,8,9,11)          -111.3963         estimate D2E/DX2                !
 ! D213  D(6,8,9,15)          -179.5651         estimate D2E/DX2                !
 ! D214  D(6,8,9,26)            96.9523         estimate D2E/DX2                !
 ! D215  D(4,9,10,13)           97.9356         estimate D2E/DX2                !
 ! D216  D(4,9,10,24)         -179.0427         estimate D2E/DX2                !
 ! D217  D(8,9,10,13)           28.7665         estimate D2E/DX2                !
 ! D218  D(8,9,10,24)          111.7882         estimate D2E/DX2                !
 ! D219  D(11,9,10,13)        -178.7738         estimate D2E/DX2                !
 ! D220  D(11,9,10,24)         -95.7521         estimate D2E/DX2                !
 ! D221  D(15,9,10,13)        -109.5455         estimate D2E/DX2                !
 ! D222  D(15,9,10,24)         -26.5238         estimate D2E/DX2                !
 ! D223  D(26,9,10,13)         -40.6907         estimate D2E/DX2                !
 ! D224  D(26,9,10,24)          42.331          estimate D2E/DX2                !
 ! D225  D(4,9,11,12)          -97.269          estimate D2E/DX2                !
 ! D226  D(4,9,11,27)         -179.4541         estimate D2E/DX2                !
 ! D227  D(8,9,11,12)          -28.0291         estimate D2E/DX2                !
 ! D228  D(8,9,11,27)         -110.2142         estimate D2E/DX2                !
 ! D229  D(10,9,11,12)         179.7913         estimate D2E/DX2                !
 ! D230  D(10,9,11,27)          97.6062         estimate D2E/DX2                !
 ! D231  D(15,9,11,12)          41.1451         estimate D2E/DX2                !
 ! D232  D(15,9,11,27)         -41.04           estimate D2E/DX2                !
 ! D233  D(26,9,11,12)         109.8064         estimate D2E/DX2                !
 ! D234  D(26,9,11,27)          27.6213         estimate D2E/DX2                !
 ! D235  D(4,9,15,12)           27.5531         estimate D2E/DX2                !
 ! D236  D(4,9,15,27)          109.6843         estimate D2E/DX2                !
 ! D237  D(8,9,15,12)           96.6789         estimate D2E/DX2                !
 ! D238  D(8,9,15,27)          178.8101         estimate D2E/DX2                !
 ! D239  D(10,9,15,12)        -112.0639         estimate D2E/DX2                !
 ! D240  D(10,9,15,27)         -29.9327         estimate D2E/DX2                !
 ! D241  D(11,9,15,12)         -41.2899         estimate D2E/DX2                !
 ! D242  D(11,9,15,27)          40.8414         estimate D2E/DX2                !
 ! D243  D(26,9,15,12)         179.8981         estimate D2E/DX2                !
 ! D244  D(26,9,15,27)         -97.9706         estimate D2E/DX2                !
 ! D245  D(4,9,26,13)          -27.5979         estimate D2E/DX2                !
 ! D246  D(4,9,26,24)         -111.0493         estimate D2E/DX2                !
 ! D247  D(8,9,26,13)          -96.2913         estimate D2E/DX2                !
 ! D248  D(8,9,26,24)         -179.7427         estimate D2E/DX2                !
 ! D249  D(10,9,26,13)          41.0594         estimate D2E/DX2                !
 ! D250  D(10,9,26,24)         -42.392          estimate D2E/DX2                !
 ! D251  D(11,9,26,13)         112.4701         estimate D2E/DX2                !
 ! D252  D(11,9,26,24)          29.0187         estimate D2E/DX2                !
 ! D253  D(15,9,26,13)        -179.8326         estimate D2E/DX2                !
 ! D254  D(15,9,26,24)          96.716          estimate D2E/DX2                !
 ! D255  D(9,10,13,7)          -97.291          estimate D2E/DX2                !
 ! D256  D(9,10,13,16)         -27.3424         estimate D2E/DX2                !
 ! D257  D(9,10,13,26)          41.1055         estimate D2E/DX2                !
 ! D258  D(9,10,13,37)        -179.9131         estimate D2E/DX2                !
 ! D259  D(9,10,13,38)         107.6972         estimate D2E/DX2                !
 ! D260  D(24,10,13,7)        -179.31           estimate D2E/DX2                !
 ! D261  D(24,10,13,16)       -109.3614         estimate D2E/DX2                !
 ! D262  D(24,10,13,26)        -40.9136         estimate D2E/DX2                !
 ! D263  D(24,10,13,37)         98.0679         estimate D2E/DX2                !
 ! D264  D(24,10,13,38)         25.6782         estimate D2E/DX2                !
 ! D265  D(9,10,24,17)        -120.0481         estimate D2E/DX2                !
 ! D266  D(9,10,24,25)        -179.4679         estimate D2E/DX2                !
 ! D267  D(9,10,24,26)         -42.9198         estimate D2E/DX2                !
 ! D268  D(9,10,24,28)          94.9005         estimate D2E/DX2                !
 ! D269  D(9,10,24,29)          25.7133         estimate D2E/DX2                !
 ! D270  D(13,10,24,17)        -36.0751         estimate D2E/DX2                !
 ! D271  D(13,10,24,25)        -95.4949         estimate D2E/DX2                !
 ! D272  D(13,10,24,26)         41.0532         estimate D2E/DX2                !
 ! D273  D(13,10,24,28)        178.8735         estimate D2E/DX2                !
 ! D274  D(13,10,24,29)        109.6864         estimate D2E/DX2                !
 ! D275  D(9,11,12,2)           27.8765         estimate D2E/DX2                !
 ! D276  D(9,11,12,5)           96.1781         estimate D2E/DX2                !
 ! D277  D(9,11,12,14)        -111.1916         estimate D2E/DX2                !
 ! D278  D(9,11,12,15)         -41.7067         estimate D2E/DX2                !
 ! D279  D(9,11,12,52)         177.9419         estimate D2E/DX2                !
 ! D280  D(9,11,12,54)        -133.4736         estimate D2E/DX2                !
 ! D281  D(27,11,12,2)         112.3457         estimate D2E/DX2                !
 ! D282  D(27,11,12,5)        -179.3527         estimate D2E/DX2                !
 ! D283  D(27,11,12,14)        -26.7223         estimate D2E/DX2                !
 ! D284  D(27,11,12,15)         42.7625         estimate D2E/DX2                !
 ! D285  D(27,11,12,52)        -97.5888         estimate D2E/DX2                !
 ! D286  D(27,11,12,54)        -49.0043         estimate D2E/DX2                !
 ! D287  D(9,11,27,15)          41.2106         estimate D2E/DX2                !
 ! D288  D(9,11,27,28)         -95.6449         estimate D2E/DX2                !
 ! D289  D(9,11,27,29)         -25.2776         estimate D2E/DX2                !
 ! D290  D(9,11,27,30)         -92.5838         estimate D2E/DX2                !
 ! D291  D(9,11,27,55)         179.5265         estimate D2E/DX2                !
 ! D292  D(9,11,27,56)         112.7741         estimate D2E/DX2                !
 ! D293  D(12,11,27,15)        -42.3575         estimate D2E/DX2                !
 ! D294  D(12,11,27,28)       -179.213          estimate D2E/DX2                !
 ! D295  D(12,11,27,29)       -108.8457         estimate D2E/DX2                !
 ! D296  D(12,11,27,30)       -176.1519         estimate D2E/DX2                !
 ! D297  D(12,11,27,55)         95.9584         estimate D2E/DX2                !
 ! D298  D(12,11,27,56)         29.206          estimate D2E/DX2                !
 ! D299  D(2,12,14,51)          98.9574         estimate D2E/DX2                !
 ! D300  D(5,12,14,51)          31.6963         estimate D2E/DX2                !
 ! D301  D(11,12,14,51)       -109.1865         estimate D2E/DX2                !
 ! D302  D(15,12,14,51)       -178.1478         estimate D2E/DX2                !
 ! D303  D(52,12,14,51)        -37.5673         estimate D2E/DX2                !
 ! D304  D(2,12,15,9)          -95.9457         estimate D2E/DX2                !
 ! D305  D(2,12,15,27)         179.8123         estimate D2E/DX2                !
 ! D306  D(5,12,15,9)          -28.7885         estimate D2E/DX2                !
 ! D307  D(5,12,15,27)        -113.0305         estimate D2E/DX2                !
 ! D308  D(11,12,15,9)          41.7043         estimate D2E/DX2                !
 ! D309  D(11,12,15,27)        -42.5377         estimate D2E/DX2                !
 ! D310  D(14,12,15,9)        -178.1458         estimate D2E/DX2                !
 ! D311  D(14,12,15,27)         97.6122         estimate D2E/DX2                !
 ! D312  D(52,12,15,9)         112.5149         estimate D2E/DX2                !
 ! D313  D(52,12,15,27)         28.2729         estimate D2E/DX2                !
 ! D314  D(54,12,15,9)         133.5339         estimate D2E/DX2                !
 ! D315  D(54,12,15,27)         49.2919         estimate D2E/DX2                !
 ! D316  D(2,12,52,51)         -32.0943         estimate D2E/DX2                !
 ! D317  D(5,12,52,51)         -99.212          estimate D2E/DX2                !
 ! D318  D(11,12,52,51)        177.2297         estimate D2E/DX2                !
 ! D319  D(14,12,52,51)         37.6131         estimate D2E/DX2                !
 ! D320  D(15,12,52,51)        107.3139         estimate D2E/DX2                !
 ! D321  D(2,12,54,51)          57.4902         estimate D2E/DX2                !
 ! D322  D(2,12,54,53)          57.6944         estimate D2E/DX2                !
 ! D323  D(2,12,54,55)        -165.0944         estimate D2E/DX2                !
 ! D324  D(2,12,54,56)         -81.3098         estimate D2E/DX2                !
 ! D325  D(2,12,54,57)        -123.6302         estimate D2E/DX2                !
 ! D326  D(5,12,54,51)         -57.6541         estimate D2E/DX2                !
 ! D327  D(5,12,54,53)         -57.4499         estimate D2E/DX2                !
 ! D328  D(5,12,54,55)          79.7612         estimate D2E/DX2                !
 ! D329  D(5,12,54,56)         163.5459         estimate D2E/DX2                !
 ! D330  D(5,12,54,57)         121.2255         estimate D2E/DX2                !
 ! D331  D(11,12,54,51)       -139.8954         estimate D2E/DX2                !
 ! D332  D(11,12,54,53)       -139.6912         estimate D2E/DX2                !
 ! D333  D(11,12,54,55)         -2.48           estimate D2E/DX2                !
 ! D334  D(11,12,54,56)         81.3047         estimate D2E/DX2                !
 ! D335  D(11,12,54,57)         38.9843         estimate D2E/DX2                !
 ! D336  D(15,12,54,51)        138.6586         estimate D2E/DX2                !
 ! D337  D(15,12,54,53)        138.8628         estimate D2E/DX2                !
 ! D338  D(15,12,54,55)        -83.9261         estimate D2E/DX2                !
 ! D339  D(15,12,54,56)         -0.1414         estimate D2E/DX2                !
 ! D340  D(15,12,54,57)        -42.4618         estimate D2E/DX2                !
 ! D341  D(7,13,16,6)           41.4273         estimate D2E/DX2                !
 ! D342  D(7,13,16,18)         -40.6117         estimate D2E/DX2                !
 ! D343  D(10,13,16,6)         -28.965          estimate D2E/DX2                !
 ! D344  D(10,13,16,18)       -111.0041         estimate D2E/DX2                !
 ! D345  D(26,13,16,6)         -97.5445         estimate D2E/DX2                !
 ! D346  D(26,13,16,18)       -179.5836         estimate D2E/DX2                !
 ! D347  D(37,13,16,6)         110.2526         estimate D2E/DX2                !
 ! D348  D(37,13,16,18)         28.2135         estimate D2E/DX2                !
 ! D349  D(38,13,16,6)        -178.6945         estimate D2E/DX2                !
 ! D350  D(38,13,16,18)         99.2664         estimate D2E/DX2                !
 ! D351  D(7,13,26,9)           28.1235         estimate D2E/DX2                !
 ! D352  D(7,13,26,24)         110.205          estimate D2E/DX2                !
 ! D353  D(10,13,26,9)         -41.1466         estimate D2E/DX2                !
 ! D354  D(10,13,26,24)         40.9349         estimate D2E/DX2                !
 ! D355  D(16,13,26,9)          95.3521         estimate D2E/DX2                !
 ! D356  D(16,13,26,24)        177.4336         estimate D2E/DX2                !
 ! D357  D(37,13,26,9)        -113.103          estimate D2E/DX2                !
 ! D358  D(37,13,26,24)        -31.0215         estimate D2E/DX2                !
 ! D359  D(38,13,26,9)        -179.8612         estimate D2E/DX2                !
 ! D360  D(38,13,26,24)        -97.7797         estimate D2E/DX2                !
 ! D361  D(7,13,37,36)        -179.5837         estimate D2E/DX2                !
 ! D362  D(7,13,37,39)         103.7105         estimate D2E/DX2                !
 ! D363  D(10,13,37,36)        -96.7298         estimate D2E/DX2                !
 ! D364  D(10,13,37,39)       -173.4356         estimate D2E/DX2                !
 ! D365  D(16,13,37,36)        111.9251         estimate D2E/DX2                !
 ! D366  D(16,13,37,39)         35.2193         estimate D2E/DX2                !
 ! D367  D(26,13,37,36)        -25.9955         estimate D2E/DX2                !
 ! D368  D(26,13,37,39)       -102.7013         estimate D2E/DX2                !
 ! D369  D(38,13,37,36)         40.2293         estimate D2E/DX2                !
 ! D370  D(38,13,37,39)        -36.4766         estimate D2E/DX2                !
 ! D371  D(7,13,38,36)        -108.9559         estimate D2E/DX2                !
 ! D372  D(7,13,38,39)         -31.9947         estimate D2E/DX2                !
 ! D373  D(10,13,38,36)         33.1141         estimate D2E/DX2                !
 ! D374  D(10,13,38,39)        110.0754         estimate D2E/DX2                !
 ! D375  D(16,13,38,36)       -178.2001         estimate D2E/DX2                !
 ! D376  D(16,13,38,39)       -101.2388         estimate D2E/DX2                !
 ! D377  D(26,13,38,36)        100.0399         estimate D2E/DX2                !
 ! D378  D(26,13,38,39)        177.0011         estimate D2E/DX2                !
 ! D379  D(37,13,38,36)        -40.3298         estimate D2E/DX2                !
 ! D380  D(37,13,38,39)         36.6314         estimate D2E/DX2                !
 ! D381  D(12,14,51,22)        -99.6386         estimate D2E/DX2                !
 ! D382  D(12,14,51,52)         40.0944         estimate D2E/DX2                !
 ! D383  D(12,14,51,60)        163.9911         estimate D2E/DX2                !
 ! D384  D(12,14,51,63)        -41.5956         estimate D2E/DX2                !
 ! D385  D(9,15,27,11)         -41.2491         estimate D2E/DX2                !
 ! D386  D(9,15,27,28)          28.7676         estimate D2E/DX2                !
 ! D387  D(9,15,27,29)          95.2806         estimate D2E/DX2                !
 ! D388  D(9,15,27,30)          95.6017         estimate D2E/DX2                !
 ! D389  D(9,15,27,55)        -111.635          estimate D2E/DX2                !
 ! D390  D(9,15,27,56)         179.7129         estimate D2E/DX2                !
 ! D391  D(12,15,27,11)         42.5376         estimate D2E/DX2                !
 ! D392  D(12,15,27,28)        112.5543         estimate D2E/DX2                !
 ! D393  D(12,15,27,29)        179.0673         estimate D2E/DX2                !
 ! D394  D(12,15,27,30)        179.3884         estimate D2E/DX2                !
 ! D395  D(12,15,27,55)        -27.8484         estimate D2E/DX2                !
 ! D396  D(12,15,27,56)        -96.5004         estimate D2E/DX2                !
 ! D397  D(6,16,18,7)          -43.1092         estimate D2E/DX2                !
 ! D398  D(6,16,18,19)          21.6827         estimate D2E/DX2                !
 ! D399  D(6,16,18,20)          95.9431         estimate D2E/DX2                !
 ! D400  D(6,16,18,40)        -140.0693         estimate D2E/DX2                !
 ! D401  D(6,16,18,42)          44.1028         estimate D2E/DX2                !
 ! D402  D(6,16,18,62)        -175.9355         estimate D2E/DX2                !
[...]
 562,0.00006955,0.00006672,0.00002216,-0.00001295,0.00011438,0.00001548
 ,0.00000529,0.00013260,-0.00019267,-0.00003290,-0.00024620,0.00018797,
 -0.00016527,-0.00005525,0.00004072,-0.00004497,0.00016310,0.00000919,-
 0.00004073,-0.00005456,0.00005404,-0.00001368,0.00000535,-0.00001185,0
 .00001930,-0.00002289,-0.00000584,0.00000141,0.00001228,-0.00000478,0.
 00000114,0.00000988,-0.00000239,0.00000490,0.00000993,0.00002779,-0.00
 004288,-0.00000653,-0.00001111,0.00002486,0.00001078,-0.00001703,0.000
 02007,-0.00014057,0.00005086,-0.00011844,0.00000080,-0.00003384,-0.000
 01811,0.00001753,-0.00000559,0.00006140,0.00014264,-0.00012591,0.00010
 575,-0.00014138,0.00008312,-0.00024406,0.00001146,0.00002835,-0.000041
 66,-0.00154135,-0.00129736,0.00037255,-0.00394326,0.00469336,0.0018537
 4,0.00023899,0.00013818,-0.00034297,-0.02932227,-0.04571964,0.00015953
 ,-0.00102816,0.00089506,0.00515561,0.00030681,-0.00025044,0.00014610,0
 .00069941,0.00008816,-0.00140027,0.00017459,0.00008227,0.00053846,0.00
 014318,-0.00003911,-0.00002551,0.00032689,0.00005961,0.00009303,-0.000
 14896,0.00001919,0.00002410,-0.00001274,0.00000006,-0.00000269,-0.0021
 2771,0.00219755,-0.00103380,0.00002759,0.00000158,-0.00000738,-0.00000
 389,-0.00001068,0.00001859,-0.00242384,0.11015904,0.00107827,-0.002149
 02,0.00037879,0.00102490,-0.00141359,0.00048048,0.00008303,-0.00007914
 ,0.00028644,-0.00002235,0.00035005,0.00014448,-0.00419158,0.00298510,-
 0.00151783,-0.00008221,-0.00009712,0.00002366,-0.00002058,0.00001043,0
 .00001075,0.00009262,0.00000950,-0.00002357,0.00015539,0.00006801,-0.0
 0003634,-0.00003014,-0.00000044,-0.00002668,0.00006336,-0.00013504,0.0
 0014924,-0.00131879,0.00224531,-0.00109626,0.00003461,0.00000186,-0.00
 000985,-0.00239566,0.00146984,0.00004626,-0.00003186,0.00005947,0.0001
 6648,-0.00001698,-0.00000479,-0.00000075,0.00000349,0.00000450,0.00000
 061,-0.00002365,-0.00001503,0.00002043,-0.00000574,0.00002079,-0.00006
 315,0.00001112,-0.00001161,-0.00003209,0.00305683,-0.00445857,-0.01815
 153,-0.00093463,-0.00783783,-0.00303989,-0.00054793,-0.00136237,0.0012
 7433,-0.00000374,-0.00003036,0.00001159,0.00000435,-0.00000426,0.00000
 251,-0.00001356,0.00001242,0.00000463,0.00017414,0.00017700,-0.0001553
 3,0.00001150,0.00001559,-0.00004389,0.00003591,-0.00001597,0.00001264,
 -0.00008177,0.00002066,-0.00002456,0.00003005,-0.00002349,0.00003818,0
 .00000622,-0.00001297,0.00000660,-0.00000452,0.00000666,-0.00000723,0.
 00000577,0.00000034,-0.00000943,-0.00000107,-0.00000483,0.00000785,0.0
 0000205,0.00000492,-0.00001126,-0.00000321,0.00000269,0.00000041,-0.00
 000508,-0.00000059,0.00000198,-0.00001367,0.00000452,-0.00000551,0.000
 00027,0.00000587,0.00000190,0.00000251,-0.00000500,0.00000759,0.000094
 87,-0.00003869,0.00014090,0.00005209,0.00009295,0.00001716,0.00002933,
 -0.00005907,-0.00009090,-0.00088600,0.00019776,-0.00021210,0.00031776,
 0.00009091,0.00004934,0.00014037,-0.00000586,-0.00002649,-0.00027738,0
 .00052771,0.00161851,0.00288135,0.00079547,-0.00076081,0.00007801,0.00
 009712,-0.00038979,0.00700207,0.00668663,-0.01319188,0.00324643,0.0085
 4233,-0.00827009,-0.00005565,-0.00005814,-0.00000862,-0.00047940,-0.00
 183605,0.00077122,0.00019690,0.00044414,0.00026373,-0.00012435,-0.0001
 6220,-0.00006680,0.00016931,0.00022614,-0.00031650,-0.00002645,-0.0000
 1251,-0.00000549,-0.00000069,-0.00000700,0.00000887,0.00000125,-0.0005
 7025,-0.00012684,0.00001323,0.00000293,-0.00000999,-0.00000382,-0.0000
 0344,-0.00000475,0.06853924,-0.03725846,0.26950038,0.00012909,0.000101
 74,0.00032106,-0.00100767,-0.00041341,-0.00026652,0.00023307,-0.000041
 53,-0.00001546,0.00004345,-0.00000859,-0.00005740,0.00037424,0.0001765
 3,0.00039935,-0.00000670,0.00001284,0.00000089,-0.00001122,-0.00000831
 ,0.00000241,0.00002155,-0.00004382,0.00001095,0.00001217,-0.00002342,-
 0.00002912,-0.00001911,0.00000074,0.00000069,-0.00002520,-0.00005080,-
 0.00005632,-0.00043622,0.00020493,-0.00016802,0.00002651,0.00000110,-0
 .00001514,-0.00048568,0.00038702,0.00107588,-0.00003990,0.00001114,0.0
 0006018,-0.00000251,0.00000549,0.00001162,0.00000377,0.00000002,0.0000
 0432,-0.00000667,-0.00000294,0.00000937,-0.00000289,0.00000970,-0.0000
 2797,0.00000101,-0.00000412,-0.00001350,-0.00504986,0.00624862,-0.0058
 4188,-0.02079149,0.04627197,-0.03046153,0.00041646,0.00038436,-0.00017
 541,-0.00000083,0.00000504,-0.00001160,0.00000717,-0.00000481,-0.00000
 004,-0.00001199,-0.00000574,-0.00000064,0.00004011,0.00000099,0.000060
 17,-0.00001518,-0.00000207,0.00000144,0.00001299,-0.00001031,-0.000003
 43,-0.00005174,0.00005657,0.00000202,0.00005394,-0.00004870,0.00005465
 ,0.00000914,-0.00001544,0.00000671,-0.00004037,0.00000445,0.00000395,0
 .00001552,-0.00001186,-0.00000062,-0.00000214,0.00000016,-0.00000008,0
 .00000611,0.00000488,-0.00000627,-0.00000569,0.00000131,-0.00000024,-0
 .00000578,0.00000304,-0.00000103,-0.00000588,-0.00000451,0.00000975,0.
 00000137,0.00000412,-0.00000761,-0.00000159,0.00000204,-0.00000226,0.0
 0005262,-0.00002105,0.00005019,0.00001469,0.00001375,0.00000145,-0.000
 00403,-0.00001415,-0.00001407,-0.00013682,0.00000964,-0.00006414,-0.00
 001542,-0.00005030,0.00010371,0.00001604,0.00000040,0.00001164,-0.0001
 9525,-0.00051170,-0.00025565,0.00031346,-0.00034387,0.00052504,-0.0000
 1796,0.00004918,0.00000440,0.00022721,-0.00458955,0.00509386,0.0005681
 1,0.00003892,-0.00010731,0.00009560,-0.00001796,-0.00007601,-0.0003495
 3,-0.00040605,0.00016570,0.00011814,0.00002122,0.00004245,0.00003400,0
 .00001014,-0.00006696,-0.00001015,0.00011648,-0.00015145,0.00001259,-0
 .00000865,0.00000401,0.00000303,-0.00000386,0.00000602,-0.00065258,0.0
 0024525,-0.00029181,-0.00000367,0.00000187,0.00000030,0.00000124,0.000
 00243,-0.00000628,0.00031329,0.00019306,0.00009203,0.02581962,0.000233
 50,-0.00009413,0.00028067,0.00052640,0.00030455,0.00016219,-0.00001601
 ,0.00000104,-0.00000324,-0.00000879,-0.00000799,0.00003099,0.00012696,
 -0.00002575,0.00020895,0.00000318,0.00000612,0.00001570,-0.00000670,0.
 00000078,0.00000426,-0.00001876,-0.00002384,-0.00001950,0.00005948,0.0
 0002621,-0.00001576,-0.00001330,-0.00000526,-0.00000353,-0.00003027,-0
 .00004041,-0.00004676,-0.00005583,0.00008042,-0.00079976,0.00000740,0.
 00000350,0.00000281,-0.00016707,0.00061087,0.00066031,-0.00003017,-0.0
 0002430,-0.00001031,-0.00000538,-0.00000149,-0.00000158,0.00000234,-0.
 00000255,0.00000354,-0.00000452,-0.00000163,0.00000479,-0.00000138,0.0
 0000649,-0.00001534,0.00000261,-0.00000355,-0.00000938,-0.00036756,0.0
 0182275,-0.00182896,0.04901641,-0.18488511,0.11098972,-0.00049225,-0.0
 0006912,-0.00012641,-0.00000957,-0.00000401,0.00001063,0.00000193,-0.0
 0000351,0.00000105,-0.00001207,0.00000817,0.00000007,0.00000785,0.0000
 0460,0.00003958,0.00000075,-0.00000265,-0.00001004,0.00001268,0.000001
 06,-0.00001042,-0.00002494,0.00001977,0.00001136,0.00002547,-0.0000213
 3,0.00001901,0.00000066,-0.00000626,-0.00000307,-0.00000391,0.00000506
 ,-0.00000480,0.00000607,-0.00000187,-0.00000057,-0.00000056,-0.0000028
 8,0.00000433,0.00000146,0.00000435,-0.00000633,-0.00000193,-0.00000033
 ,-0.00000099,-0.00000157,0.00000119,-0.00000038,-0.00000472,0.00000226
 ,-0.00000164,-0.00000009,0.00000178,-0.00000052,0.00000169,-0.00000308
 ,0.00000393,0.00002224,-0.00001423,0.00004029,0.00001188,0.00002420,-0
 .00000347,0.00000317,-0.00001197,-0.00002788,-0.00020144,0.00003584,-0
 .00001967,0.00001465,-0.00003146,0.00001728,0.00004495,0.00000388,-0.0
 0001259,-0.00010451,-0.00007743,-0.00003752,-0.00020015,-0.00010892,0.
 00040104,0.00000287,0.00003350,0.00000806,-0.00066177,0.00115374,-0.00
 047777,-0.00014404,0.00014779,-0.00010070,-0.00001712,0.00006218,-0.00
 003805,-0.00023883,-0.00045424,0.00040718,0.00008279,0.00000913,0.0000
 9182,0.00001986,-0.00004977,-0.00006181,0.00002346,0.00010695,-0.00011
 153,0.00000129,-0.00000560,0.00000664,0.00000021,-0.00000525,0.0000076
 9,0.00065737,0.00019774,-0.00106044,0.00000591,0.00000290,-0.00000473,
 -0.00000037,-0.00000186,-0.00000229,-0.00059309,-0.00062565,-0.0021598
 5,-0.04754590,0.18243792,0.00036640,-0.00018855,0.00031221,0.00019062,
 -0.00000714,-0.00040188,-0.00006475,0.00013194,0.00006005,-0.00001438,
 0.00003159,0.00002705,0.00000005,0.00010014,0.00027257,-0.00000601,-0.
 00000339,0.00001486,0.00000617,0.00001069,0.00000189,-0.00002692,-0.00
 000726,-0.00003451,0.00003536,0.00000151,0.00003870,0.00000691,-0.0000
 0308,-0.00000429,-0.00001930,-0.00014492,-0.00015758,0.00038511,0.0003
 9475,-0.00074586,-0.00001290,-0.00000330,0.00001199,0.00051260,-0.0003
 4304,-0.00152966,0.00000958,-0.00003471,0.00004563,0.00000167,-0.00000
 204,-0.00000657,-0.00000187,0.00000033,0.00000031,0.00000334,0.0000019
 6,-0.00000498,0.00000200,-0.00000182,0.00001910,0.00000148,0.00000035,
 0.00000385,-0.00147702,0.00177838,-0.00220786,-0.02832012,0.09894848,-
 0.07713201,0.00018408,-0.00026930,-0.00004812,-0.00000156,-0.00001359,
 0.00001312,-0.00000401,0.00000078,0.00000138,0.00000039,0.00000705,-0.
 00000534,-0.00003193,-0.00000626,-0.00001097,0.00001312,-0.00000172,0.
 00000071,0.00000729,0.00000169,0.00000072,0.00000702,-0.00000881,-0.00
 000319,-0.00001704,0.00001104,-0.00000667,-0.00000269,0.00000356,-0.00
 000387,0.00002503,-0.00000077,-0.00001339,-0.00000707,0.00000758,-0.00
 000270,0.00000159,-0.00000502,0.00000714,-0.00000304,0.00000382,-0.000
 00455,0.00000136,-0.00000266,-0.00000176,0.00000288,0.00000095,0.00000
 097,-0.00000019,0.00000903,-0.00001400,-0.00000124,-0.00000169,0.00000
 740,0.00000523,-0.00000783,0.00000950,-0.00004734,0.00000578,-0.000022
 23,0.00000348,0.00000556,0.00000151,0.00000200,-0.00000172,0.00000517,
 0.00001036,-0.00002808,0.00002399,-0.00006105,-0.00007388,0.00000343,0
 .00002723,0.00001073,-0.00002477,-0.00015711,-0.00039175,0.00000903,-0
 .00011973,0.00012541,0.00041500,0.00006023,0.00007399,-0.00008866,-0.0
 0203773,0.00713671,-0.00510273,-0.00034102,0.00030558,0.00018074,0.000
 01868,0.00007895,0.00001182,0.00007276,-0.00016705,0.00036785,0.000009
 18,0.00002437,-0.00002781,0.00003149,-0.00009211,-0.00002624,0.0000245
 7,0.00002366,-0.00005866,-0.00002075,-0.00000048,0.00000347,-0.0000013
 7,-0.00000390,0.00000617,0.00088694,-0.00014685,-0.00000900,0.00001595
 ,0.00000446,-0.00000816,-0.00000148,-0.00000520,0.00000406,-0.00030023
 ,0.00030901,0.00001933,0.03018077,-0.10630422,0.08570690,-0.00003725,-
 0.00027161,-0.00005465,0.00023402,-0.00043526,-0.00001240,-0.00001148,
 -0.00006847,0.00008480,0.00002640,-0.00000697,0.00003463,-0.00090970,0
 .00065516,0.00041570,-0.00000403,0.00000325,-0.00001196,-0.00001111,-0
 .00001454,-0.00000183,0.00005987,0.00005500,-0.00001890,0.00001105,0.0
 0004782,0.00001551,-0.00000869,0.00000445,0.00000486,-0.00002937,-0.00
 003515,-0.00000248,-0.00050903,-0.00009164,-0.00002282,0.00002830,0.00
 000851,-0.00001005,0.00063989,-0.00001493,-0.00010583,-0.00001503,0.00
 003253,0.00002895,-0.00000441,0.00000208,0.00000913,0.00000369,0.00000
 082,0.00000404,-0.00000550,-0.00000086,0.00000971,-0.00000290,0.000006
 57,-0.00002587,-0.00000005,-0.00000327,-0.00001298,-0.00491495,0.00328
 793,-0.00639097,0.00032417,-0.00067866,-0.00008667,0.00035671,-0.00021
 530,0.00041480,-0.00000081,0.00000998,-0.00001129,0.00000675,-0.000003
 70,-0.00000138,-0.00001558,-0.00000386,0.00000339,0.00003495,-0.000056
 09,0.00001760,0.00000061,-0.00000486,-0.00000246,-0.00000662,-0.000013
 18,-0.00000187,-0.00003548,0.00004732,-0.00000080,0.00004270,-0.000039
 68,0.00005381,0.00000779,-0.00001358,0.00000518,-0.00003640,0.00000376
 ,0.00000572,0.00001314,-0.00001003,-0.00000085,-0.00000213,0.00000088,
 -0.00000109,0.00000426,0.00000170,-0.00000520,-0.00000569,0.00000168,-
 0.00000126,-0.00000557,0.00000108,-0.00000078,-0.00000450,-0.00000658,
 0.00001021,0.00000158,0.00000347,-0.00000743,-0.00000248,0.00000349,-0
 .00000378,0.00005289,-0.00001413,0.00004414,0.00000208,0.00000956,0.00
 001251,-0.00000003,-0.00000158,-0.00001515,-0.00007816,0.00005590,-0.0
 0001772,0.00023736,0.00001302,0.00000255,0.00000060,-0.00001417,0.0000
 0660,0.00000086,0.00038497,0.00027514,0.00035539,-0.00016048,-0.000454
 11,-0.00003718,-0.00001864,-0.00001865,0.00097818,-0.00309202,0.007407
 27,-0.00069517,-0.00098820,0.00025531,0.00010068,0.00005699,-0.0000065
 1,-0.00024430,0.00016113,0.00029325,0.00003054,0.00002889,-0.00005034,
 0.00008394,-0.00004574,-0.00001235,-0.00002884,0.00003882,-0.00015914,
 0.00001582,0.00000144,0.00000602,0.00000217,-0.00000251,0.00000379,-0.
 00090416,0.00014940,-0.00009983,-0.00000655,-0.00000085,0.00000118,0.0
 0000122,0.00000353,-0.00000632,-0.03464219,0.01572742,-0.07712820,0.00
 041443,0.00005706,-0.00001309,0.03914330,-0.00040785,0.00044631,-0.000
 29896,-0.00005909,0.00047373,-0.00007335,0.00002866,-0.00001252,-0.000
 10482,0.00001091,-0.00005169,-0.00001674,-0.00020698,-0.00023932,0.000
 20003,0.00000776,0.00001776,-0.00000545,0.00000016,-0.00000668,-0.0000
 0414,0.00001409,0.00002645,0.00001009,-0.00004908,0.00002977,0.0000044
 6,0.00001000,-0.00000204,0.00001078,0.00001063,0.00002335,-0.00003338,
 -0.00028586,-0.00072715,0.00087199,0.00000192,0.00000852,-0.00000285,0
 .00032352,0.00018772,0.00022793,-0.00001806,-0.00021493,-0.00009862,0.
 00000129,0.00000204,0.00000583,-0.00000046,0.00000003,-0.00000153,0.00
 000062,0.00000006,0.00000032,0.00000015,-0.00000154,-0.00000451,-0.000
 00348,0.00000044,0.00000306,0.00265962,-0.00261821,0.00454370,0.000344
 97,-0.00078906,0.00034858,0.00023102,0.00050288,-0.00032912,0.00000555
 ,0.00000429,-0.00001866,0.00000086,0.00000219,-0.00000101,0.00000188,-
 0.00000441,-0.00000325,0.00001545,0.00001341,-0.00001598,-0.00000631,-
 0.00000018,0.00001175,-0.00001593,0.00000798,-0.00000363,0.00002413,-0
 .00001176,0.00000298,-0.00001380,0.00000969,-0.00001299,-0.00000166,0.
 00000397,-0.00000084,-0.00000640,-0.00000165,0.00001163,0.00000099,-0.
 00000267,0.00000198,-0.00000091,0.00000516,-0.00000772,0.00000026,-0.0
 0000510,0.00000806,0.00000015,0.00000087,0.00000126,0.00000012,-0.0000
 0272,-0.00000092,0.00000345,-0.00000824,0.00001081,-0.00000002,-0.0000
 0050,-0.00000504,-0.00000490,0.00000764,-0.00000932,0.00001960,0.00000
 504,-0.00000701,0.00000045,-0.00001203,0.00000044,-0.00000505,0.000011
 37,0.00001293,0.00009579,-0.00000812,-0.00000935,0.00005094,0.00007305
 ,0.00008398,-0.00004460,-0.00001086,0.00002475,0.00007755,-0.00029102,
 -0.00044859,-0.00012808,-0.00019107,-0.00009329,-0.00003855,-0.0000174
 2,0.00012045,0.00269502,-0.00143621,0.00659666,-0.00039218,-0.00072917
 ,0.00042740,-0.00000992,0.00002888,0.00009688,0.00006439,0.00028101,-0
 .00061586,-0.00006585,-0.00008376,-0.00005298,-0.00005504,0.00003428,0
 .00003155,-0.00001959,-0.00005707,0.00012621,0.00001448,0.00000160,-0.
 00001198,-0.00000038,0.00000617,-0.00000979,-0.00096453,-0.00024932,0.
 00032231,-0.00001538,-0.00000459,0.00000983,0.00000164,0.00000378,-0.0
 0000160,0.01102865,-0.02035992,0.03465397,-0.00038771,-0.00050930,-0.0
 0127772,-0.01453906,0.02644079,-0.00002851,0.00018568,-0.00004376,-0.0
 0016122,0.00013651,-0.00010595,-0.00004227,0.00002677,-0.00001952,-0.0
 0000303,-0.00001014,-0.00002258,-0.00017761,0.00039539,0.00013182,-0.0
 0000102,0.00001597,0.00000866,0.00000945,0.00000158,-0.00000463,-0.000
 01287,-0.00000181,-0.00002497,-0.00004141,-0.00001774,0.00003325,0.000
 01258,0.00000202,0.00000299,0.00002021,-0.00003413,0.00001375,0.000186
 54,-0.00046302,0.00008869,-0.00001455,-0.00000322,0.00000691,-0.000111
 54,-0.00014760,0.00010579,0.00003469,0.00002483,-0.00001371,0.00000426
 ,-0.00000210,-0.00000539,-0.00000321,-0.00000027,-0.00000294,0.0000073
 2,0.00000203,-0.00000935,0.00000257,-0.00000725,0.00002507,-0.00000247
 ,0.00000414,0.00001222,0.00053554,-0.00070810,0.00212010,-0.00004259,-
 0.00206767,0.00017252,0.00010519,0.00008316,-0.00029548,0.00000953,0.0
 0000473,-0.00000251,-0.00000564,0.00000265,-0.00000169,0.00001558,-0.0
 0000524,-0.00000575,-0.00001705,0.00004811,-0.00000920,-0.00000220,0.0
 0000025,0.00001248,-0.00000461,-0.00000038,0.00000413,0.00002639,-0.00
 002719,-0.00000316,-0.00002812,0.00002364,-0.00002759,-0.00000571,0.00
 000991,-0.00000318,0.00001822,-0.00000307,-0.00000047,-0.00000784,0.00
 000558,0.00000157,0.00000131,0.00000061,-0.00000122,-0.00000275,-0.000
 00222,0.00000444,0.00000319,-0.00000091,0.00000070,0.00000288,-0.00000
 097,0.00000054,0.00000438,0.00000286,-0.00000499,-0.00000121,-0.000002
 94,0.00000412,0.00000081,-0.00000074,0.00000044,-0.00004441,0.00001750
 ,-0.00005058,-0.00001004,-0.00002419,-0.00000224,-0.00000357,0.0000063
 3,0.00002521,0.00019989,-0.00004256,0.00003960,-0.00005940,-0.00005665
 ,-0.00002556,-0.00003041,0.00000403,0.00000291,0.00003808,-0.00004963,
 0.00003863,0.00046513,-0.00017669,0.00005550,0.00002933,0.00003718,-0.
 00001885,-0.00050189,0.00125855,-0.00334245,0.00075970,0.00143918,0.00
 001732,0.00001449,-0.00003633,0.00004110,0.00022951,-0.00002614,-0.000
 46427,-0.00001588,-0.00004227,0.00001236,-0.00007806,0.00009692,-0.000
 02985,0.00000598,-0.00003049,0.00013213,-0.00001163,0.00000352,-0.0000
 0555,-0.00000094,0.00000305,-0.00000450,-0.00019871,-0.00075742,0.0006
 8379,0.00000196,-0.00000144,0.00000056,-0.00000021,-0.00000121,0.00000
 432,-0.07630215,0.04620276,-0.22773107,-0.00012118,-0.00009209,0.00010
 041,0.07535123,-0.04520162,0.22837889\\-0.00001183,0.00002129,-0.00001
 257,-0.00001835,-0.00000184,0.00002644,0.00000093,-0.00000269,-0.00000
 128,-0.00000026,-0.00000716,-0.00000630,-0.00000310,0.00001280,0.00000
 667,0.00000195,-0.00000434,0.00000087,-0.00000188,0.00000137,-0.000006
 30,0.00000521,0.00000643,0.00000486,0.00000431,-0.00000211,0.00000008,
 -0.00000116,0.00000029,-0.00000308,-0.00000423,-0.00000473,0.00000012,
 0.00001769,0.00002531,-0.00002572,0.00000039,-0.00000262,0.00000467,-0
 .00001174,0.00000020,-0.00000376,-0.00001362,0.00000214,0.00001022,-0.
 00000048,0.00000202,0.00000125,-0.00000216,-0.00000059,0.00000155,-0.0
 0000745,-0.00000400,0.00000213,0.00000188,0.00000422,-0.00000308,-0.00
 000334,0.00000303,-0.00000082,0.00003070,-0.00005066,-0.00007811,0.000
 01041,0.00001799,0.00001052,-0.00002143,0.00000691,0.00003027,0.000003
 52,0.00000136,0.00000060,-0.00000137,0.00000026,-0.00000167,-0.0000015
 7,0.00000173,-0.00000193,0.00001030,-0.00000508,-0.00001167,-0.0000019
 3,-0.00000030,-0.00000216,0.00000130,-0.00000400,0.00000116,-0.0000030
 7,0.00001753,0.00000531,0.00000050,-0.00000627,-0.00000129,-0.00000046
 ,-0.00000264,-0.00000188,-0.00000171,-0.00000242,-0.00000080,-0.000000
 47,-0.00000045,-0.00000208,-0.00000151,0.00000094,0.00000043,0.0000003
 8,-0.00000361,-0.00000060,0.00000095,-0.00000116,0.00000028,-0.0000019
 1,0.00000183,0.00000007,-0.00000004,0.00000091,0.00000275,0.00000384,-
 0.00000023,-0.00000315,-0.00000104,-0.00000007,0.00000033,0.00001939,-
 0.00000885,0.00002093,-0.00000185,0.00000481,0.00000031,0.00000482,-0.
 00000096,-0.00000368,-0.00001591,-0.00001091,-0.00001024,0.00000228,-0
 .00001660,0.00000918,0.00000242,-0.00000264,0.00000183,0.00000488,0.00
 004447,-0.00000085,0.00001847,0.00000353,0.00000524,0.00000539,-0.0000
 0470,0.00000541,0.00000080,-0.00001164,-0.00001661,0.00000256,-0.00000
 537,-0.00000214,0.00000620,0.00000935,-0.00002002,0.00001384,-0.000014
 13,0.00004024,-0.00000344,-0.00000119,0.00000938,-0.00000552,-0.000008
 94,0.00001289,-0.00000595,0.00001178,-0.00000500,0.00000080,0.00000064
 ,-0.00000111,-0.00000141,0.00000089,-0.00000038,-0.00000187,-0.0000053
 6,0.00000248,-0.00000299,0.00000308,-0.00000128,-0.00000123,-0.0000004
 8,-0.00000040,-0.00002103,-0.00001014,0.00001400,-0.00000704,-0.000001
 08,0.00000115,0.00000823,0.00000290,-0.00000367\\\@
 The archive entry for this job was punched.


 Standing in the middle of the road is very dangerous;
 you get knocked down by the traffic from both sides.
                                -- Margaret Thatcher
 Job cpu time:       5 days 23 hours 33 minutes 14.7 seconds.
 Elapsed time:       0 days  3 hours  7 minutes 55.3 seconds.
 File lengths (MBytes):  RWF=  13882 Int=      0 D2E=      0 Chk=    137 Scr=      2
 Normal termination of Gaussian 16 at Wed Mar  8 14:20:26 2023.
