 Entering Gaussian System, Link 0=/apps/GAU16/avx2/g16/g16
 Initial command:
 /apps/GAU16/avx2//g16/l1.exe "/localscratch/chegho/Gau-187699.inp" -scrdir="/localscratch/chegho/"
 Entering Link 1 = /apps/GAU16/avx2//g16/l1.exe PID=    187701.
  
 Copyright (c) 1988-2019, Gaussian, Inc.  All Rights Reserved.
  
 This is part of the Gaussian(R) 16 program.  It is based on
 the Gaussian(R) 09 system (copyright 2009, Gaussian, Inc.),
 the Gaussian(R) 03 system (copyright 2003, Gaussian, Inc.),
 the Gaussian(R) 98 system (copyright 1998, Gaussian, Inc.),
 the Gaussian(R) 94 system (copyright 1995, Gaussian, Inc.),
 the Gaussian 92(TM) system (copyright 1992, Gaussian, Inc.),
 the Gaussian 90(TM) system (copyright 1990, Gaussian, Inc.),
 the Gaussian 88(TM) system (copyright 1988, Gaussian, Inc.),
 the Gaussian 86(TM) system (copyright 1986, Carnegie Mellon
 University), and the Gaussian 82(TM) system (copyright 1983,
 Carnegie Mellon University). Gaussian is a federally registered
 trademark of Gaussian, Inc.
  
 This software contains proprietary and confidential information,
 including trade secrets, belonging to Gaussian, Inc.
  
 This software is provided under written license and may be
 used, copied, transmitted, or stored only in accord with that
 written license.
  
 The following legend is applicable only to US Government
 contracts under FAR:
  
                    RESTRICTED RIGHTS LEGEND
  
 Use, reproduction and disclosure by the US Government is
 subject to restrictions as set forth in subparagraphs (a)
 and (c) of the Commercial Computer Software - Restricted
 Rights clause in FAR 52.227-19.
  
 Gaussian, Inc.
 340 Quinnipiac St., Bldg. 40, Wallingford CT 06492
  
  
 ---------------------------------------------------------------
 Warning -- This program may not be used in any manner that
 competes with the business of Gaussian, Inc. or will provide
 assistance to any competitor of Gaussian, Inc.  The licensee
 of this program is prohibited from giving any competitor of
 Gaussian, Inc. access to this program.  By using this program,
 the user acknowledges that Gaussian, Inc. is engaged in the
 business of creating and licensing software in the field of
 computational chemistry and represents and warrants to the
 licensee that it is not a competitor of Gaussian, Inc. and that
 it will not use this program in any manner prohibited above.
 ---------------------------------------------------------------
  

 Cite this work as:
 Gaussian 16, Revision C.01,
 M. J. Frisch, G. W. Trucks, H. B. Schlegel, G. E. Scuseria, 
 M. A. Robb, J. R. Cheeseman, G. Scalmani, V. Barone, 
 G. A. Petersson, H. Nakatsuji, X. Li, M. Caricato, A. V. Marenich, 
 J. Bloino, B. G. Janesko, R. Gomperts, B. Mennucci, H. P. Hratchian, 
 J. V. Ortiz, A. F. Izmaylov, J. L. Sonnenberg, D. Williams-Young, 
 F. Ding, F. Lipparini, F. Egidi, J. Goings, B. Peng, A. Petrone, 
 T. Henderson, D. Ranasinghe, V. G. Zakrzewski, J. Gao, N. Rega, 
 G. Zheng, W. Liang, M. Hada, M. Ehara, K. Toyota, R. Fukuda, 
 J. Hasegawa, M. Ishida, T. Nakajima, Y. Honda, O. Kitao, H. Nakai, 
 T. Vreven, K. Throssell, J. A. Montgomery, Jr., J. E. Peralta, 
 F. Ogliaro, M. J. Bearpark, J. J. Heyd, E. N. Brothers, K. N. Kudin, 
 V. N. Staroverov, T. A. Keith, R. Kobayashi, J. Normand, 
 K. Raghavachari, A. P. Rendell, J. C. Burant, S. S. Iyengar, 
 J. Tomasi, M. Cossi, J. M. Millam, M. Klene, C. Adamo, R. Cammi, 
 J. W. Ochterski, R. L. Martin, K. Morokuma, O. Farkas, 
 J. B. Foresman, and D. J. Fox, Gaussian, Inc., Wallingford CT, 2019.
 
 ******************************************
 Gaussian 16:  ES64L-G16RevC.01  3-Jul-2019
                21-Feb-2023 
 ******************************************
 %nprocshared=48
 Will use up to   48 processors via shared memory.
 %chk=Mo19S44.chk
 %mem=100GB
 ---------------------------------------------------------
 # opt freq b3lyp/gen nosymm pseudo=read scf=maxcycles=500
 ---------------------------------------------------------
 1/18=20,19=15,26=3,38=1/1,3;
 2/9=110,12=2,15=1,17=6,18=5,40=1/2;
 3/5=7,11=2,16=1,17=8,25=1,30=1,71=1,74=-5/1,2,3;
 4//1;
 5/5=2,7=500,38=5/2;
 6/7=2,8=2,9=2,10=2,28=1/1;
 7/30=1/1,2,3,16;
 1/18=20,19=15,26=3/3(2);
 2/9=110,15=1/2;
 99//99;
 2/9=110,15=1/2;
 3/5=7,6=1,11=2,16=1,17=8,25=1,30=1,71=1,74=-5,82=7/1,2,3;
 4/5=5,16=3,69=1/1;
 5/5=2,7=500,38=5/2;
 7/30=1/1,2,3,16;
 1/18=20,19=15,26=3/3(-5);
 2/9=110,15=1/2;
 6/7=2,8=2,9=2,10=2,19=2,28=1/1;
 99/9=1/99;
 -------------------
 Title Card Required
 -------------------
 Symbolic Z-matrix:
 Charge =  0 Multiplicity = 1
 42                    0.3259    1.36181   12.57074 
 16                    2.32602   2.28523   13.56841 
 16                   -0.70238   1.94899   14.80477 
 16                   -0.4984    1.06827   10.29315 
 16                    1.91639  -0.32018   11.84498 
 42                   -2.0841    2.79477   10.94684 
 16                   -2.88737   2.51056   8.67561 
 16                   -0.07119   3.68491   11.98295 
 42                    0.94168   2.99708   9.85146 
 16                    0.0918    2.6962    7.56764 
 16                    2.54931   1.26027   9.20279 
 42                    3.34044   1.60084   11.46104 
 42                   -1.47205   4.4259    8.25704 
 16                    5.47995   2.55024   12.44593 
 16                    2.99045   3.911     10.83976 
 16                   -2.40555   5.12107   10.38791 
 16                    1.10863   6.96069   6.41444 
 42                   -4.47612   4.2882    9.52137 
 16                   -5.93353   2.15855   9.58599 
 16                   -5.55006   4.84798   11.34948 
 42                    2.68438  -0.04802   14.10893 
 16                    4.67541   0.99351   15.32484 
 16                    1.69911   0.46666   16.28745 
 42                    1.54901   4.57936   7.14155 
 16                    0.81697   4.41853   4.73073 
 16                    0.5716    5.3339    9.23634 
 42                    3.9801    3.16739   8.73145 
 16                    3.08775   2.79134   6.50451 
 16                    3.60773   5.47771   8.11937 
 42                    4.50031   4.64669   6.07413 
 16                    6.79334   4.70403   6.00763 
 16                    4.32871   7.14362   5.56031 
 42                    2.52914   6.34086   4.51847 
 16                    3.82598   4.42625   3.83865 
 16                   -1.55166   7.05791   3.80157 
 42                   -0.90502   5.90661   5.4502 
 16                   -2.43301   4.23329   5.92717 
 16                   -1.80816   6.81887   7.52833 
 42                   -3.66326   6.06073   6.658 
 16                   -5.7078    4.81448   7.41552 
 16                   -4.42967   7.27852   5.11477 
 42                   -5.31302   2.46354   11.68285 
 16                   -3.32558   3.43977   13.05344 
 16                   -3.54005   0.80272   11.50947 
 42                   -2.65816   1.26828   13.77525 
 16                   -1.21701  -0.5699    13.05744 
 16                   -4.05273   0.57536   15.20271 
 42                   -0.02535  -0.66071   15.22386 
 16                    1.2746   -2.23041   14.35973 
 16                   -1.28974  -1.53809   16.67674 
 42                    5.67302   0.34339   13.4517 
 16                    5.07258  -0.15053   11.02144 
 16                    8.34226   1.18091   10.7675 
 42                    6.37929   1.79456   10.28738 
 16                    5.61802   1.29518   8.02956 
 16                    6.20002   4.15781   9.71999 
 42                    7.00241   3.1759    7.76199 
 16                    9.05079   2.69352   7.8688 
 16                    2.13787   7.59919   2.86531 
 16                    7.64109  -0.18953   14.02647 
 16                   -6.88381   1.76715   12.91324 
 16                   -5.18093   6.5049    8.57271 
 16                    4.30274  -1.67781   13.63172 
 

 GradGradGradGradGradGradGradGradGradGradGradGradGradGradGradGradGradGrad
 Berny optimization.
 Initialization pass.
                           ----------------------------
                           !    Initial Parameters    !
                           ! (Angstroms and Degrees)  !
 --------------------------                            --------------------------
 ! Name  Definition              Value          Derivative Info.                !
 --------------------------------------------------------------------------------
 ! R1    R(1,2)                  2.4184         estimate D2E/DX2                !
 ! R2    R(1,3)                  2.5285         estimate D2E/DX2                !
 ! R3    R(1,4)                  2.4399         estimate D2E/DX2                !
 ! R4    R(1,5)                  2.426          estimate D2E/DX2                !
 ! R5    R(1,8)                  2.429          estimate D2E/DX2                !
 ! R6    R(1,46)                 2.5197         estimate D2E/DX2                !
 ! R7    R(2,12)                 2.4369         estimate D2E/DX2                !
 ! R8    R(2,21)                 2.4217         estimate D2E/DX2                !
 ! R9    R(3,45)                 2.3126         estimate D2E/DX2                !
 ! R10   R(3,48)                 2.7285         estimate D2E/DX2                !
 ! R11   R(4,6)                  2.4336         estimate D2E/DX2                !
 ! R12   R(4,9)                  2.4473         estimate D2E/DX2                !
 ! R13   R(5,12)                 2.4219         estimate D2E/DX2                !
 ! R14   R(5,21)                 2.4061         estimate D2E/DX2                !
 ! R15   R(6,7)                  2.4258         estimate D2E/DX2                !
 ! R16   R(6,8)                  2.4326         estimate D2E/DX2                !
 ! R17   R(6,16)                 2.414          estimate D2E/DX2                !
 ! R18   R(6,43)                 2.5289         estimate D2E/DX2                !
 ! R19   R(6,44)                 2.5307         estimate D2E/DX2                !
 ! R20   R(7,13)                 2.418          estimate D2E/DX2                !
 ! R21   R(7,18)                 2.5297         estimate D2E/DX2                !
 ! R22   R(8,9)                  2.4581         estimate D2E/DX2                !
 ! R23   R(9,10)                 2.4553         estimate D2E/DX2                !
 ! R24   R(9,11)                 2.4539         estimate D2E/DX2                !
 ! R25   R(9,15)                 2.4514         estimate D2E/DX2                !
 ! R26   R(9,26)                 2.4446         estimate D2E/DX2                !
 ! R27   R(10,13)                2.4316         estimate D2E/DX2                !
 ! R28   R(10,24)                2.4189         estimate D2E/DX2                !
 ! R29   R(11,12)                2.4169         estimate D2E/DX2                !
 ! R30   R(11,27)                2.4303         estimate D2E/DX2                !
 ! R31   R(12,14)                2.5395         estimate D2E/DX2                !
 ! R32   R(12,15)                2.4177         estimate D2E/DX2                !
 ! R33   R(12,52)                2.5022         estimate D2E/DX2                !
 ! R34   R(13,16)                2.428          estimate D2E/DX2                !
 ! R35   R(13,26)                2.4413         estimate D2E/DX2                !
 ! R36   R(13,37)                2.5276         estimate D2E/DX2                !
 ! R37   R(13,38)                2.5239         estimate D2E/DX2                !
 ! R38   R(14,51)                2.4329         estimate D2E/DX2                !
 ! R39   R(14,54)                2.4575         estimate D2E/DX2                !
 ! R40   R(15,27)                2.4449         estimate D2E/DX2                !
 ! R41   R(16,18)                2.3941         estimate D2E/DX2                !
 ! R42   R(17,24)                2.5285         estimate D2E/DX2                !
 ! R43   R(17,33)                2.4488         estimate D2E/DX2                !
 ! R44   R(17,36)                2.4689         estimate D2E/DX2                !
 ! R45   R(18,19)                2.5814         estimate D2E/DX2                !
 ! R46   R(18,20)                2.1929         estimate D2E/DX2                !
 ! R47   R(18,40)                2.4957         estimate D2E/DX2                !
 ! R48   R(18,42)                2.9499         estimate D2E/DX2                !
 ! R49   R(18,62)                2.5121         estimate D2E/DX2                !
 ! R50   R(19,42)                2.2079         estimate D2E/DX2                !
 ! R51   R(20,42)                2.4193         estimate D2E/DX2                !
 ! R52   R(21,22)                2.5549         estimate D2E/DX2                !
 ! R53   R(21,23)                2.4457         estimate D2E/DX2                !
 ! R54   R(21,48)                2.9935         estimate D2E/DX2                !
 ! R55   R(21,49)                2.6102         estimate D2E/DX2                !
 ! R56   R(21,51)                3.085          estimate D2E/DX2                !
 ! R57   R(21,63)                2.3459         estimate D2E/DX2                !
 ! R58   R(22,51)                2.2196         estimate D2E/DX2                !
 ! R59   R(23,48)                2.3186         estimate D2E/DX2                !
 ! R60   R(24,25)                2.5246         estimate D2E/DX2                !
 ! R61   R(24,26)                2.4316         estimate D2E/DX2                !
 ! R62   R(24,28)                2.4435         estimate D2E/DX2                !
 ! R63   R(24,29)                2.4498         estimate D2E/DX2                !
 ! R64   R(25,33)                2.583          estimate D2E/DX2                !
 ! R65   R(25,36)                2.3869         estimate D2E/DX2                !
 ! R66   R(27,28)                2.4284         estimate D2E/DX2                !
 ! R67   R(27,29)                2.4189         estimate D2E/DX2                !
 ! R68   R(27,30)                3.0855         estimate D2E/DX2                !
 ! R69   R(27,55)                2.5847         estimate D2E/DX2                !
 ! R70   R(27,56)                2.6242         estimate D2E/DX2                !
 ! R71   R(28,30)                2.3713         estimate D2E/DX2                !
 ! R72   R(29,30)                2.3812         estimate D2E/DX2                !
 ! R73   R(30,31)                2.2947         estimate D2E/DX2                !
 ! R74   R(30,32)                2.555          estimate D2E/DX2                !
 ! R75   R(30,33)                3.0292         estimate D2E/DX2                !
 ! R76   R(30,34)                2.3454         estimate D2E/DX2                !
 ! R77   R(31,57)                2.3359         estimate D2E/DX2                !
 ! R78   R(32,33)                2.229          estimate D2E/DX2                !
 ! R79   R(33,34)                2.4103         estimate D2E/DX2                !
 ! R80   R(33,59)                2.1141         estimate D2E/DX2                !
 ! R81   R(35,36)                2.1123         estimate D2E/DX2                !
 ! R82   R(36,37)                2.3157         estimate D2E/DX2                !
 ! R83   R(36,38)                2.4426         estimate D2E/DX2                !
 ! R84   R(36,39)                3.015          estimate D2E/DX2                !
 ! R85   R(37,39)                2.321          estimate D2E/DX2                !
 ! R86   R(38,39)                2.1849         estimate D2E/DX2                !
 ! R87   R(39,40)                2.5114         estimate D2E/DX2                !
 ! R88   R(39,41)                2.11           estimate D2E/DX2                !
 ! R89   R(39,62)                2.4833         estimate D2E/DX2                !
 ! R90   R(40,62)                2.1152         estimate D2E/DX2                !
 ! R91   R(42,43)                2.6041         estimate D2E/DX2                !
 ! R92   R(42,44)                2.4355         estimate D2E/DX2                !
 ! R93   R(42,61)                2.1133         estimate D2E/DX2                !
 ! R94   R(43,45)                2.3837         estimate D2E/DX2                !
 ! R95   R(44,45)                2.4755         estimate D2E/DX2                !
 ! R96   R(45,46)                2.4436         estimate D2E/DX2                !
 ! R97   R(45,47)                2.1125         estimate D2E/DX2                !
 ! R98   R(46,48)                2.4742         estimate D2E/DX2                !
 ! R99   R(48,49)                2.2137         estimate D2E/DX2                !
 ! R100  R(48,50)                2.1164         estimate D2E/DX2                !
 ! R101  R(51,52)                2.5516         estimate D2E/DX2                !
 ! R102  R(51,60)                2.1184         estimate D2E/DX2                !
 ! R103  R(51,63)                2.4485         estimate D2E/DX2                !
 ! R104  R(52,54)                2.4555         estimate D2E/DX2                !
 ! R105  R(53,54)                2.112          estimate D2E/DX2                !
 ! R106  R(54,55)                2.4345         estimate D2E/DX2                !
 ! R107  R(54,56)                2.437          estimate D2E/DX2                !
 ! R108  R(54,57)                2.9452         estimate D2E/DX2                !
 ! R109  R(55,57)                2.3506         estimate D2E/DX2                !
 ! R110  R(56,57)                2.3328         estimate D2E/DX2                !
 ! R111  R(57,58)                2.1071         estimate D2E/DX2                !
 ! A1    A(2,1,3)               83.291          estimate D2E/DX2                !
 ! A2    A(2,1,4)              135.2715         estimate D2E/DX2                !
 ! A3    A(2,1,5)               81.1374         estimate D2E/DX2                !
 ! A4    A(2,1,8)               82.5213         estimate D2E/DX2                !
 ! A5    A(2,1,46)             136.0115         estimate D2E/DX2                !
 ! A6    A(3,1,4)              135.67           estimate D2E/DX2                !
 ! A7    A(3,1,5)              133.7853         estimate D2E/DX2                !
 ! A8    A(3,1,8)               85.7114         estimate D2E/DX2                !
 ! A9    A(3,1,46)              76.0155         estimate D2E/DX2                !
 ! A10   A(4,1,5)               81.884          estimate D2E/DX2                !
 ! A11   A(4,1,8)               80.4411         estimate D2E/DX2                !
 ! A12   A(4,1,46)              83.1773         estimate D2E/DX2                !
 ! A13   A(5,1,8)              134.2571         estimate D2E/DX2                !
 ! A14   A(5,1,46)              85.8545         estimate D2E/DX2                !
 ! A15   A(8,1,46)             132.8324         estimate D2E/DX2                !
 ! A16   A(1,2,12)              83.1246         estimate D2E/DX2                !
 ! A17   A(1,2,21)              81.1744         estimate D2E/DX2                !
 ! A18   A(12,2,21)             82.0002         estimate D2E/DX2                !
 ! A19   A(1,3,45)              83.2371         estimate D2E/DX2                !
 ! A20   A(1,3,48)              79.2036         estimate D2E/DX2                !
 ! A21   A(45,3,48)             89.8105         estimate D2E/DX2                !
 ! A22   A(1,4,6)               83.3413         estimate D2E/DX2                !
 ! A23   A(1,4,9)               82.8109         estimate D2E/DX2                !
 ! A24   A(6,4,9)               82.6899         estimate D2E/DX2                !
 ! A25   A(1,5,12)              83.2799         estimate D2E/DX2                !
 ! A26   A(1,5,21)              81.3355         estimate D2E/DX2                !
 ! A27   A(12,5,21)             82.6325         estimate D2E/DX2                !
 ! A28   A(4,6,7)               83.1745         estimate D2E/DX2                !
 ! A29   A(4,6,8)               80.4938         estimate D2E/DX2                !
 ! A30   A(4,6,16)             135.0913         estimate D2E/DX2                !
 ! A31   A(4,6,43)             136.4341         estimate D2E/DX2                !
 ! A32   A(4,6,44)              82.8855         estimate D2E/DX2                !
 ! A33   A(7,6,8)              135.6972         estimate D2E/DX2                !
 ! A34   A(7,6,16)              81.4906         estimate D2E/DX2                !
 ! A35   A(7,6,43)             130.3357         estimate D2E/DX2                !
 ! A36   A(7,6,44)              85.7232         estimate D2E/DX2                !
 ! A37   A(8,6,16)              81.7308         estimate D2E/DX2                !
 ! A38   A(8,6,43)              87.5979         estimate D2E/DX2                !
 ! A39   A(8,6,44)             132.0196         estimate D2E/DX2                !
 ! A40   A(16,6,43)             83.2066         estimate D2E/DX2                !
 ! A41   A(16,6,44)            137.1733         estimate D2E/DX2                !
 ! A42   A(43,6,44)             74.5221         estimate D2E/DX2                !
 ! A43   A(6,7,13)              82.845          estimate D2E/DX2                !
 ! A44   A(6,7,18)              79.1995         estimate D2E/DX2                !
 ! A45   A(13,7,18)             82.4641         estimate D2E/DX2                !
 ! A46   A(1,8,6)               83.5909         estimate D2E/DX2                !
 ! A47   A(1,8,9)               82.8104         estimate D2E/DX2                !
 ! A48   A(6,8,9)               82.4863         estimate D2E/DX2                !
 ! A49   A(4,9,8)               79.7217         estimate D2E/DX2                !
 ! A50   A(4,9,10)              82.3924         estimate D2E/DX2                !
 ! A51   A(4,9,11)              82.8417         estimate D2E/DX2                !
 ! A52   A(4,9,15)             135.4677         estimate D2E/DX2                !
 ! A53   A(4,9,26)             135.2124         estimate D2E/DX2                !
 ! A54   A(8,9,10)             134.2842         estimate D2E/DX2                !
 ! A55   A(8,9,11)             134.2038         estimate D2E/DX2                !
 ! A56   A(8,9,15)              83.7114         estimate D2E/DX2                !
 ! A57   A(8,9,26)              83.5882         estimate D2E/DX2                !
 ! A58   A(10,9,11)             83.9243         estimate D2E/DX2                !
 ! A59   A(10,9,15)            135.2319         estimate D2E/DX2                !
 ! A60   A(10,9,26)             80.2523         estimate D2E/DX2                !
 ! A61   A(11,9,15)             79.8001         estimate D2E/DX2                !
 ! A62   A(11,9,26)            135.1721         estimate D2E/DX2                !
 ! A63   A(15,9,26)             82.6222         estimate D2E/DX2                !
 ! A64   A(9,10,13)             82.6305         estimate D2E/DX2                !
 ! A65   A(9,10,24)             81.9479         estimate D2E/DX2                !
 ! A66   A(13,10,24)            83.3153         estimate D2E/DX2                !
 ! A67   A(9,11,12)             82.3989         estimate D2E/DX2                !
 ! A68   A(9,11,27)             83.1975         estimate D2E/DX2                !
 ! A69   A(12,11,27)            82.9881         estimate D2E/DX2                !
 ! A70   A(2,12,5)              80.8457         estimate D2E/DX2                !
 ! A71   A(2,12,11)            135.3421         estimate D2E/DX2                !
 ! A72   A(2,12,14)             84.8553         estimate D2E/DX2                !
 ! A73   A(2,12,15)             83.8927         estimate D2E/DX2                !
 ! A74   A(2,12,52)            129.5444         estimate D2E/DX2                !
 ! A75   A(5,12,11)             81.0185         estimate D2E/DX2                !
 ! A76   A(5,12,14)            136.923          estimate D2E/DX2                !
 ! A77   A(5,12,15)            135.5221         estimate D2E/DX2                !
 ! A78   A(5,12,52)             83.091          estimate D2E/DX2                !
 ! A79   A(11,12,14)           133.6957         estimate D2E/DX2                !
 ! A80   A(11,12,15)            81.2086         estimate D2E/DX2                !
 ! A81   A(11,12,52)            87.9261         estimate D2E/DX2                !
 ! A82   A(14,12,15)            82.2064         estimate D2E/DX2                !
 ! A83   A(14,12,52)            75.3203         estimate D2E/DX2                !
 ! A84   A(15,12,52)           136.3747         estimate D2E/DX2                !
 ! A85   A(7,13,10)             82.0712         estimate D2E/DX2                !
 ! A86   A(7,13,16)             81.3637         estimate D2E/DX2                !
 ! A87   A(7,13,26)            135.6555         estimate D2E/DX2                !
 ! A88   A(7,13,37)             82.9156         estimate D2E/DX2                !
 ! A89   A(7,13,38)            136.3059         estimate D2E/DX2                !
 ! A90   A(10,13,16)           134.4065         estimate D2E/DX2                !
 ! A91   A(10,13,26)            80.7884         estimate D2E/DX2                !
 ! A92   A(10,13,37)            85.9267         estimate D2E/DX2                !
 ! A93   A(10,13,38)           132.7041         estimate D2E/DX2                !
 ! A94   A(16,13,26)            82.1439         estimate D2E/DX2                !
 ! A95   A(16,13,37)           133.2047         estimate D2E/DX2                !
 ! A96   A(16,13,38)            86.028          estimate D2E/DX2                !
 ! A97   A(26,13,37)           135.754          estimate D2E/DX2                !
 ! A98   A(26,13,38)            82.7998         estimate D2E/DX2                !
 ! A99   A(37,13,38)            75.8471         estimate D2E/DX2                !
 ! A100  A(12,14,51)            83.5735         estimate D2E/DX2                !
 ! A101  A(12,14,54)            81.5296         estimate D2E/DX2                !
 ! A102  A(51,14,54)            93.1611         estimate D2E/DX2                !
 ! A103  A(9,15,12)             82.4351         estimate D2E/DX2                !
 ! A104  A(9,15,27)             82.9489         estimate D2E/DX2                !
 ! A105  A(12,15,27)            82.6676         estimate D2E/DX2                !
 ! A106  A(6,16,13)             82.8823         estimate D2E/DX2                !
 ! A107  A(6,16,18)             82.1676         estimate D2E/DX2                !
 ! A108  A(13,16,18)            85.1388         estimate D2E/DX2                !
 ! A109  A(24,17,33)            83.2943         estimate D2E/DX2                !
 ! A110  A(24,17,36)            81.5046         estimate D2E/DX2                !
 ! A111  A(33,17,36)            93.5929         estimate D2E/DX2                !
 ! A112  A(7,18,16)             79.7646         estimate D2E/DX2                !
 ! A113  A(7,18,19)             77.4796         estimate D2E/DX2                !
 ! A114  A(7,18,20)            139.9669         estimate D2E/DX2                !
 ! A115  A(7,18,40)            100.1382         estimate D2E/DX2                !
 ! A116  A(7,18,42)             89.3405         estimate D2E/DX2                !
 ! A117  A(7,18,62)            132.0696         estimate D2E/DX2                !
 ! A118  A(16,18,19)           140.0157         estimate D2E/DX2                !
 ! A119  A(16,18,20)            91.8919         estimate D2E/DX2                !
 ! A120  A(16,18,40)           131.2135         estimate D2E/DX2                !
 ! A121  A(16,18,42)           101.2644         estimate D2E/DX2                !
 ! A122  A(16,18,62)            94.1495         estimate D2E/DX2                !
 ! A123  A(19,18,20)            85.0222         estimate D2E/DX2                !
 ! A124  A(19,18,40)            85.208          estimate D2E/DX2                !
 ! A125  A(19,18,62)           125.3835         estimate D2E/DX2                !
 ! A126  A(20,18,40)           114.0733         estimate D2E/DX2                !
 ! A127  A(20,18,62)            87.258          estimate D2E/DX2                !
 ! A128  A(40,18,42)           127.4951         estimate D2E/DX2                !
 ! A129  A(42,18,62)           137.9823         estimate D2E/DX2                !
 ! A130  A(2,21,5)              81.4736         estimate D2E/DX2                !
 ! A131  A(2,21,22)             80.1408         estimate D2E/DX2                !
 ! A132  A(2,21,23)             86.3562         estimate D2E/DX2                !
 ! A133  A(2,21,48)             98.417          estimate D2E/DX2                !
 ! A134  A(2,21,49)            138.3381         estimate D2E/DX2                !
 ! A135  A(2,21,51)             88.4851         estimate D2E/DX2                !
 ! A136  A(2,21,63)            136.557          estimate D2E/DX2                !
 ! A137  A(5,21,22)            137.9577         estimate D2E/DX2                !
 ! A138  A(5,21,23)            137.1667         estimate D2E/DX2                !
 ! A139  A(5,21,48)             92.1989         estimate D2E/DX2                !
 ! A140  A(5,21,49)             79.8306         estimate D2E/DX2                !
 ! A141  A(5,21,51)             97.0716         estimate D2E/DX2                !
 ! A142  A(5,21,63)             87.1457         estimate D2E/DX2                !
 ! A143  A(22,21,23)            78.7108         estimate D2E/DX2                !
 ! A144  A(22,21,48)           127.706          estimate D2E/DX2                !
 ! A145  A(22,21,49)           135.727          estimate D2E/DX2                !
 ! A146  A(22,21,63)            80.9331         estimate D2E/DX2                !
 ! A147  A(23,21,49)            82.6911         estimate D2E/DX2                !
 ! A148  A(23,21,51)           123.5965         estimate D2E/DX2                !
 ! A149  A(23,21,63)           127.2524         estimate D2E/DX2                !
 ! A150  A(48,21,63)           123.9212         estimate D2E/DX2                !
 ! A151  A(49,21,51)           130.5254         estimate D2E/DX2                !
 ! A152  A(49,21,63)            79.1214         estimate D2E/DX2                !
 ! A153  A(10,24,17)           132.7595         estimate D2E/DX2                !
 ! A154  A(10,24,25)            86.7863         estimate D2E/DX2                !
 ! A155  A(10,24,26)            81.2385         estimate D2E/DX2                !
 ! A156  A(10,24,28)            81.6982         estimate D2E/DX2                !
 ! A157  A(10,24,29)           136.1718         estimate D2E/DX2                !
 ! A158  A(17,24,25)            74.6268         estimate D2E/DX2                !
 ! A159  A(17,24,26)            83.424          estimate D2E/DX2                !
 ! A160  A(17,24,28)           136.3748         estimate D2E/DX2                !
 ! A161  A(17,24,29)            85.1689         estimate D2E/DX2                !
 ! A162  A(25,24,26)           136.54           estimate D2E/DX2                !
 ! A163  A(25,24,28)            83.5132         estimate D2E/DX2                !
 ! A164  A(25,24,29)           130.4047         estimate D2E/DX2                !
 ! A165  A(26,24,28)           134.8125         estimate D2E/DX2                !
 ! A166  A(26,24,29)            83.1163         estimate D2E/DX2                !
 ! A167  A(28,24,29)            80.9784         estimate D2E/DX2                !
 ! A168  A(24,25,33)            80.7269         estimate D2E/DX2                !
 ! A169  A(24,25,36)            83.2022         estimate D2E/DX2                !
 ! A170  A(33,25,36)            92.2353         estimate D2E/DX2                !
 ! A171  A(9,26,13)             82.6537         estimate D2E/DX2                !
 ! A172  A(9,26,24)             81.9115         estimate D2E/DX2                !
 ! A173  A(13,26,24)            82.8485         estimate D2E/DX2                !
 ! A174  A(11,27,15)            80.3938         estimate D2E/DX2                !
 ! A175  A(11,27,28)            80.793          estimate D2E/DX2                !
 ! A176  A(11,27,29)           135.0689         estimate D2E/DX2                !
 ! A177  A(11,27,30)           129.9794         estimate D2E/DX2                !
 ! A178  A(11,27,55)            81.7978         estimate D2E/DX2                !
 ! A179  A(11,27,56)           136.1497         estimate D2E/DX2                !
 ! A180  A(15,27,28)           133.5647         estimate D2E/DX2                !
 ! A181  A(15,27,29)            82.264          estimate D2E/DX2                !
 ! A182  A(15,27,30)           131.6901         estimate D2E/DX2                !
 ! A183  A(15,27,55)           135.3166         estimate D2E/DX2                !
 ! A184  A(15,27,56)            84.4212         estimate D2E/DX2                !
 ! A185  A(28,27,29)            81.9108         estimate D2E/DX2                !
 ! A186  A(28,27,55)            82.6263         estimate D2E/DX2                !
 ! A187  A(28,27,56)           135.624          estimate D2E/DX2                !
 ! A188  A(29,27,55)           136.1107         estimate D2E/DX2                !
 ! A189  A(29,27,56)            82.2449         estimate D2E/DX2                !
 ! A190  A(30,27,55)            90.3759         estimate D2E/DX2                !
 ! A191  A(30,27,56)            90.0486         estimate D2E/DX2                !
 ! A192  A(55,27,56)            80.7698         estimate D2E/DX2                !
 ! A193  A(24,28,27)            83.0503         estimate D2E/DX2                !
 ! A194  A(24,28,30)            81.3676         estimate D2E/DX2                !
 ! A195  A(24,29,27)            83.1147         estimate D2E/DX2                !
 ! A196  A(24,29,30)            81.0368         estimate D2E/DX2                !
 ! A197  A(27,30,31)           101.854          estimate D2E/DX2                !
 ! A198  A(27,30,32)           129.0802         estimate D2E/DX2                !
 ! A199  A(27,30,33)           126.9217         estimate D2E/DX2                !
 ! A200  A(27,30,34)           136.6642         estimate D2E/DX2                !
 ! A201  A(28,30,29)            83.9083         estimate D2E/DX2                !
 ! A202  A(28,30,31)           128.3217         estimate D2E/DX2                !
 ! A203  A(28,30,32)           139.5643         estimate D2E/DX2                !
 ! A204  A(28,30,33)            98.2315         estimate D2E/DX2                !
 ! A205  A(28,30,34)            85.8813         estimate D2E/DX2                !
 ! A206  A(29,30,31)           113.0003         estimate D2E/DX2                !
 ! A207  A(29,30,32)            78.8428         estimate D2E/DX2                !
 ! A208  A(29,30,33)            90.1142         estimate D2E/DX2                !
 ! A209  A(29,30,34)           138.0465         estimate D2E/DX2                !
 ! A210  A(31,30,32)            92.1126         estimate D2E/DX2                !
 ! A211  A(31,30,33)           128.418          estimate D2E/DX2                !
 ! A212  A(31,30,34)           105.1907         estimate D2E/DX2                !
 ! A213  A(32,30,34)            83.1577         estimate D2E/DX2                !
 ! A214  A(30,31,57)            92.9418         estimate D2E/DX2                !
 ! A215  A(17,33,25)            74.9441         estimate D2E/DX2                !
 ! A216  A(17,33,30)            96.9741         estimate D2E/DX2                !
 ! A217  A(17,33,32)            90.8759         estimate D2E/DX2                !
 ! A218  A(17,33,34)           137.0147         estimate D2E/DX2                !
 ! A219  A(17,33,59)           110.3291         estimate D2E/DX2                !
 ! A220  A(25,33,30)            88.4476         estimate D2E/DX2                !
 ! A221  A(25,33,32)           139.8878         estimate D2E/DX2                !
 ! A222  A(25,33,34)            77.7988         estimate D2E/DX2                !
 ! A223  A(25,33,59)           112.6152         estimate D2E/DX2                !
 ! A224  A(30,33,59)           148.7507         estimate D2E/DX2                !
 ! A225  A(32,33,34)            89.0562         estimate D2E/DX2                !
 ! A226  A(32,33,59)           107.4913         estimate D2E/DX2                !
 ! A227  A(34,33,59)           110.5989         estimate D2E/DX2                !
 ! A228  A(17,36,25)            78.1994         estimate D2E/DX2                !
 ! A229  A(17,36,35)           108.7722         estimate D2E/DX2                !
 ! A230  A(17,36,37)           140.0174         estimate D2E/DX2                !
 ! A231  A(17,36,38)            79.0378         estimate D2E/DX2                !
 ! A232  A(17,36,39)           124.6007         estimate D2E/DX2                !
 ! A233  A(25,36,35)           108.99           estimate D2E/DX2                !
 ! A234  A(25,36,37)            95.0269         estimate D2E/DX2                !
 ! A235  A(25,36,38)           139.1149         estimate D2E/DX2                !
 ! A236  A(25,36,39)           144.3515         estimate D2E/DX2                !
 ! A237  A(35,36,37)           110.6479         estimate D2E/DX2                !
 ! A238  A(35,36,38)           110.3209         estimate D2E/DX2                !
 ! A239  A(35,36,39)            90.2715         estimate D2E/DX2                !
 ! A240  A(37,36,38)            81.4115         estimate D2E/DX2                !
 ! A241  A(13,37,36)            83.3347         estimate D2E/DX2                !
 ! A242  A(13,37,39)            81.447          estimate D2E/DX2                !
 ! A243  A(13,38,36)            80.9269         estimate D2E/DX2                !
 ! A244  A(13,38,39)            84.2085         estimate D2E/DX2                !
 ! A245  A(36,39,40)           147.1643         estimate D2E/DX2                !
 ! A246  A(36,39,41)            93.9455         estimate D2E/DX2                !
 ! A247  A(36,39,62)           151.2964         estimate D2E/DX2                !
 ! A248  A(37,39,38)            87.0529         estimate D2E/DX2                !
 ! A249  A(37,39,40)            97.8035         estimate D2E/DX2                !
 ! A250  A(37,39,41)           114.6235         estimate D2E/DX2                !
 ! A251  A(37,39,62)           135.0354         estimate D2E/DX2                !
 ! A252  A(38,39,40)           138.0107         estimate D2E/DX2                !
 ! A253  A(38,39,41)           113.5463         estimate D2E/DX2                !
 ! A254  A(38,39,62)            98.61           estimate D2E/DX2                !
 ! A255  A(40,39,41)           102.1992         estimate D2E/DX2                !
 ! A256  A(41,39,62)           103.8108         estimate D2E/DX2                !
 ! A257  A(18,40,39)            87.5573         estimate D2E/DX2                !
 ! A258  A(18,42,43)            86.402          estimate D2E/DX2                !
 ! A259  A(18,42,44)            99.3875         estimate D2E/DX2                !
 ! A260  A(18,42,61)           147.2773         estimate D2E/DX2                !
 ! A261  A(19,42,20)            88.7243         estimate D2E/DX2                !
 ! A262  A(19,42,43)           140.0059         estimate D2E/DX2                !
 ! A263  A(19,42,44)            92.4519         estimate D2E/DX2                !
 ! A264  A(19,42,61)           107.3683         estimate D2E/DX2                !
 ! A265  A(20,42,43)            77.1629         estimate D2E/DX2                !
 ! A266  A(20,42,44)           137.19           estimate D2E/DX2                !
 ! A267  A(20,42,61)           109.4009         estimate D2E/DX2                !
 ! A268  A(43,42,44)            74.7836         estimate D2E/DX2                !
 ! A269  A(43,42,61)           112.6046         estimate D2E/DX2                !
 ! A270  A(44,42,61)           110.9663         estimate D2E/DX2                !
 ! A271  A(6,43,42)             80.8291         estimate D2E/DX2                !
 ! A272  A(6,43,45)             83.2486         estimate D2E/DX2                !
 ! A273  A(42,43,45)            91.8083         estimate D2E/DX2                !
 ! A274  A(6,44,42)             84.1379         estimate D2E/DX2                !
 ! A275  A(6,44,45)             81.4021         estimate D2E/DX2                !
 ! A276  A(42,44,45)            93.7801         estimate D2E/DX2                !
 ! A277  A(3,45,43)             95.938          estimate D2E/DX2                !
 ! A278  A(3,45,44)            139.8249         estimate D2E/DX2                !
 ! A279  A(3,45,46)             81.5718         estimate D2E/DX2                !
 ! A280  A(3,45,47)            110.7335         estimate D2E/DX2                !
 ! A281  A(43,45,44)            78.1365         estimate D2E/DX2                !
 ! A282  A(43,45,46)           139.5942         estimate D2E/DX2                !
 ! A283  A(43,45,47)           108.5777         estimate D2E/DX2                !
 ! A284  A(44,45,46)            78.4493         estimate D2E/DX2                !
 ! A285  A(44,45,47)           108.7601         estimate D2E/DX2                !
 ! A286  A(46,45,47)           109.9435         estimate D2E/DX2                !
 ! A287  A(1,46,45)             80.8615         estimate D2E/DX2                !
 ! A288  A(1,46,48)             84.3959         estimate D2E/DX2                !
 ! A289  A(45,46,48)            93.1212         estimate D2E/DX2                !
 ! A290  A(3,48,21)             88.3751         estimate D2E/DX2                !
 ! A291  A(3,48,23)             77.8748         estimate D2E/DX2                !
 ! A292  A(3,48,46)             73.1954         estimate D2E/DX2                !
 ! A293  A(3,48,49)            139.8151         estimate D2E/DX2                !
 ! A294  A(3,48,50)            110.7145         estimate D2E/DX2                !
 ! A295  A(21,48,46)            95.8741         estimate D2E/DX2                !
 ! A296  A(21,48,50)           151.7999         estimate D2E/DX2                !
 ! A297  A(23,48,46)           137.904          estimate D2E/DX2                !
 ! A298  A(23,48,49)            94.9962         estimate D2E/DX2                !
 ! A299  A(23,48,50)           109.3292         estimate D2E/DX2                !
 ! A300  A(46,48,49)            88.1119         estimate D2E/DX2                !
 ! A301  A(46,48,50)           109.1814         estimate D2E/DX2                !
 ! A302  A(49,48,50)           108.9552         estimate D2E/DX2                !
 ! A303  A(14,51,21)            97.2547         estimate D2E/DX2                !
 ! A304  A(14,51,22)            92.724          estimate D2E/DX2                !
 ! A305  A(14,51,52)            76.3006         estimate D2E/DX2                !
 ! A306  A(14,51,60)           114.4616         estimate D2E/DX2                !
 ! A307  A(14,51,63)           137.2867         estimate D2E/DX2                !
 ! A308  A(21,51,52)            87.156          estimate D2E/DX2                !
 ! A309  A(21,51,60)           144.1248         estimate D2E/DX2                !
 ! A310  A(22,51,52)           139.0008         estimate D2E/DX2                !
 ! A311  A(22,51,60)           105.2049         estimate D2E/DX2                !
 ! A312  A(22,51,63)            85.8827         estimate D2E/DX2                !
 ! A313  A(52,51,60)           115.3623         estimate D2E/DX2                !
 ! A314  A(52,51,63)            77.2054         estimate D2E/DX2                !
 ! A315  A(60,51,63)           106.9961         estimate D2E/DX2                !
 ! A316  A(12,52,51)            81.9565         estimate D2E/DX2                !
 ! A317  A(12,52,54)            82.3259         estimate D2E/DX2                !
 ! A318  A(51,52,54)            90.3532         estimate D2E/DX2                !
 ! A319  A(14,54,52)            77.6584         estimate D2E/DX2                !
 ! A320  A(14,54,53)           103.2859         estimate D2E/DX2                !
 ! A321  A(14,54,55)           139.7528         estimate D2E/DX2                !
 ! A322  A(14,54,56)            83.0725         estimate D2E/DX2                !
 ! A323  A(14,54,57)           133.3435         estimate D2E/DX2                !
 ! A324  A(52,54,53)           101.3317         estimate D2E/DX2                !
 ! A325  A(52,54,55)            87.0398         estimate D2E/DX2                !
 ! A326  A(52,54,56)           142.9969         estimate D2E/DX2                !
 ! A327  A(52,54,57)           137.7691         estimate D2E/DX2                !
 ! A328  A(53,54,55)           116.224          estimate D2E/DX2                !
 ! A329  A(53,54,56)           113.7699         estimate D2E/DX2                !
 ! A330  A(53,54,57)            97.7332         estimate D2E/DX2                !
 ! A331  A(55,54,56)            87.707          estimate D2E/DX2                !
 ! A332  A(27,55,54)            78.33           estimate D2E/DX2                !
 ! A333  A(27,55,57)            79.8969         estimate D2E/DX2                !
 ! A334  A(27,56,54)            77.5217         estimate D2E/DX2                !
 ! A335  A(27,56,57)            79.3928         estimate D2E/DX2                !
 ! A336  A(31,57,54)           158.7282         estimate D2E/DX2                !
 ! A337  A(31,57,55)           123.7929         estimate D2E/DX2                !
 ! A338  A(31,57,56)           108.919          estimate D2E/DX2                !
 ! A339  A(31,57,58)           105.9522         estimate D2E/DX2                !
 ! A340  A(54,57,58)            93.1437         estimate D2E/DX2                !
 ! A341  A(55,57,56)            92.2154         estimate D2E/DX2                !
 ! A342  A(55,57,58)           112.5568         estimate D2E/DX2                !
 ! A343  A(56,57,58)           112.842          estimate D2E/DX2                !
 ! A344  A(18,62,39)            87.8151         estimate D2E/DX2                !
 ! A345  L(48,21,51,2,-1)      186.9021         estimate D2E/DX2                !
 ! A346  L(48,21,51,2,-2)      171.6413         estimate D2E/DX2                !
 ! D1    D(3,1,2,12)           176.9466         estimate D2E/DX2                !
 ! D2    D(3,1,2,21)            94.0197         estimate D2E/DX2                !
 ! D3    D(4,1,2,12)           -28.2693         estimate D2E/DX2                !
 ! D4    D(4,1,2,21)          -111.1963         estimate D2E/DX2                !
 ! D5    D(5,1,2,12)            40.6032         estimate D2E/DX2                !
 ! D6    D(5,1,2,21)           -42.3237         estimate D2E/DX2                !
 ! D7    D(8,1,2,12)           -96.5219         estimate D2E/DX2                !
 ! D8    D(8,1,2,21)          -179.4489         estimate D2E/DX2                !
 ! D9    D(46,1,2,12)          115.1247         estimate D2E/DX2                !
 ! D10   D(46,1,2,21)           32.1978         estimate D2E/DX2                !
 ! D11   D(2,1,3,45)           174.5044         estimate D2E/DX2                !
 ! D12   D(2,1,3,48)           -94.3941         estimate D2E/DX2                !
 ! D13   D(4,1,3,45)            19.9119         estimate D2E/DX2                !
 ! D14   D(4,1,3,48)           111.0134         estimate D2E/DX2                !
 ! D15   D(5,1,3,45)          -114.6203         estimate D2E/DX2                !
 ! D16   D(5,1,3,48)           -23.5188         estimate D2E/DX2                !
 ! D17   D(8,1,3,45)            91.5467         estimate D2E/DX2                !
 ! D18   D(8,1,3,48)          -177.3518         estimate D2E/DX2                !
 ! D19   D(46,1,3,45)          -44.6123         estimate D2E/DX2                !
 ! D20   D(46,1,3,48)           46.4892         estimate D2E/DX2                !
 ! D21   D(2,1,4,6)           -110.0433         estimate D2E/DX2                !
 ! D22   D(2,1,4,9)            -26.6119         estimate D2E/DX2                !
 ! D23   D(3,1,4,6)             32.6923         estimate D2E/DX2                !
 ! D24   D(3,1,4,9)            116.1237         estimate D2E/DX2                !
 ! D25   D(5,1,4,6)           -178.6296         estimate D2E/DX2                !
 ! D26   D(5,1,4,9)            -95.1982         estimate D2E/DX2                !
 ! D27   D(8,1,4,6)            -40.9935         estimate D2E/DX2                !
 ! D28   D(8,1,4,9)             42.4379         estimate D2E/DX2                !
 ! D29   D(46,1,4,6)            94.6082         estimate D2E/DX2                !
 ! D30   D(46,1,4,9)           178.0396         estimate D2E/DX2                !
 ! D31   D(2,1,5,12)           -40.8916         estimate D2E/DX2                !
 ! D32   D(2,1,5,21)            42.64           estimate D2E/DX2                !
 ! D33   D(3,1,5,12)          -112.6375         estimate D2E/DX2                !
 ! D34   D(3,1,5,21)           -29.1059         estimate D2E/DX2                !
 ! D35   D(4,1,5,12)            97.5729         estimate D2E/DX2                !
 ! D36   D(4,1,5,21)          -178.8955         estimate D2E/DX2                !
 ! D37   D(8,1,5,12)            29.4834         estimate D2E/DX2                !
 ! D38   D(8,1,5,21)           113.0151         estimate D2E/DX2                !
 ! D39   D(46,1,5,12)         -178.7412         estimate D2E/DX2                !
 ! D40   D(46,1,5,21)          -95.2095         estimate D2E/DX2                !
 ! D41   D(2,1,8,6)            179.4703         estimate D2E/DX2                !
 ! D42   D(2,1,8,9)             96.2734         estimate D2E/DX2                !
 ! D43   D(3,1,8,6)            -96.7479         estimate D2E/DX2                !
 ! D44   D(3,1,8,9)           -179.9448         estimate D2E/DX2                !
 ! D45   D(4,1,8,6)             40.9889         estimate D2E/DX2                !
 ! D46   D(4,1,8,9)            -42.208          estimate D2E/DX2                !
 ! D47   D(5,1,8,6)            109.6442         estimate D2E/DX2                !
 ! D48   D(5,1,8,9)             26.4473         estimate D2E/DX2                !
 ! D49   D(46,1,8,6)           -30.3246         estimate D2E/DX2                !
 ! D50   D(46,1,8,9)          -113.5215         estimate D2E/DX2                !
 ! D51   D(2,1,46,45)          106.4013         estimate D2E/DX2                !
 ! D52   D(2,1,46,48)           12.3186         estimate D2E/DX2                !
 ! D53   D(3,1,46,45)           41.9543         estimate D2E/DX2                !
 ! D54   D(3,1,46,48)          -52.1285         estimate D2E/DX2                !
 ! D55   D(4,1,46,45)          -98.6003         estimate D2E/DX2                !
 ! D56   D(4,1,46,48)          167.317          estimate D2E/DX2                !
 ! D57   D(5,1,46,45)          179.0939         estimate D2E/DX2                !
 ! D58   D(5,1,46,48)           85.0112         estimate D2E/DX2                !
 ! D59   D(8,1,46,45)          -28.4147         estimate D2E/DX2                !
 ! D60   D(8,1,46,48)         -122.4975         estimate D2E/DX2                !
 ! D61   D(1,2,12,5)           -40.7257         estimate D2E/DX2                !
 ! D62   D(1,2,12,11)           26.4406         estimate D2E/DX2                !
 ! D63   D(1,2,12,14)         -179.9578         estimate D2E/DX2                !
 ! D64   D(1,2,12,15)           97.3556         estimate D2E/DX2                !
 ! D65   D(1,2,12,52)         -113.8045         estimate D2E/DX2                !
 ! D66   D(21,2,12,5)           41.2778         estimate D2E/DX2                !
 ! D67   D(21,2,12,11)         108.4441         estimate D2E/DX2                !
 ! D68   D(21,2,12,14)         -97.9543         estimate D2E/DX2                !
 ! D69   D(21,2,12,15)         179.3591         estimate D2E/DX2                !
 ! D70   D(21,2,12,52)         -31.801          estimate D2E/DX2                !
 ! D71   D(1,2,21,5)            42.7088         estimate D2E/DX2                !
 ! D72   D(1,2,21,22)         -175.2677         estimate D2E/DX2                !
 ! D73   D(1,2,21,23)          -96.1056         estimate D2E/DX2                !
 ! D74   D(1,2,21,48)          -48.2673         estimate D2E/DX2                !
 ! D75   D(1,2,21,49)          -21.374          estimate D2E/DX2                !
 ! D76   D(1,2,21,51)          140.0914         estimate D2E/DX2                !
 ! D77   D(1,2,21,63)          119.3219         estimate D2E/DX2                !
 ! D78   D(12,2,21,5)          -41.5223         estimate D2E/DX2                !
 ! D79   D(12,2,21,22)         100.5012         estimate D2E/DX2                !
 ! D80   D(12,2,21,23)         179.6633         estimate D2E/DX2                !
 ! D81   D(12,2,21,48)        -132.4985         estimate D2E/DX2                !
 ! D82   D(12,2,21,49)        -105.6051         estimate D2E/DX2                !
 ! D83   D(12,2,21,51)          55.8602         estimate D2E/DX2                !
 ! D84   D(12,2,21,63)          35.0908         estimate D2E/DX2                !
 ! D85   D(1,3,45,43)          -94.0674         estimate D2E/DX2                !
 ! D86   D(1,3,45,44)          -15.4407         estimate D2E/DX2                !
 ! D87   D(1,3,45,46)           45.2672         estimate D2E/DX2                !
 ! D88   D(1,3,45,47)          153.4836         estimate D2E/DX2                !
 ! D89   D(48,3,45,43)        -173.2173         estimate D2E/DX2                !
 ! D90   D(48,3,45,44)         -94.5905         estimate D2E/DX2                !
 ! D91   D(48,3,45,46)         -33.8827         estimate D2E/DX2                !
 ! D92   D(48,3,45,47)          74.3338         estimate D2E/DX2                !
 ! D93   D(1,3,48,21)           48.1589         estimate D2E/DX2                !
 ! D94   D(1,3,48,23)          100.584          estimate D2E/DX2                !
 ! D95   D(1,3,48,46)          -48.4746         estimate D2E/DX2                !
 ! D96   D(1,3,48,49)           17.2637         estimate D2E/DX2                !
 ! D97   D(1,3,48,50)         -153.1138         estimate D2E/DX2                !
 ! D98   D(45,3,48,21)         131.31           estimate D2E/DX2                !
 ! D99   D(45,3,48,23)        -176.2649         estimate D2E/DX2                !
 ! D100  D(45,3,48,46)          34.6764         estimate D2E/DX2                !
 ! D101  D(45,3,48,49)         100.4147         estimate D2E/DX2                !
 ! D102  D(45,3,48,50)         -69.9628         estimate D2E/DX2                !
 ! D103  D(1,4,6,7)            179.5751         estimate D2E/DX2                !
 ! D104  D(1,4,6,8)             40.9114         estimate D2E/DX2                !
 ! D105  D(1,4,6,16)           108.9149         estimate D2E/DX2                !
 ! D106  D(1,4,6,43)           -35.337          estimate D2E/DX2                !
 ! D107  D(1,4,6,44)           -93.9078         estimate D2E/DX2                !
 ! D108  D(9,4,6,7)             96.0086         estimate D2E/DX2                !
 ! D109  D(9,4,6,8)            -42.6551         estimate D2E/DX2                !
 ! D110  D(9,4,6,16)            25.3485         estimate D2E/DX2                !
 ! D111  D(9,4,6,43)          -118.9034         estimate D2E/DX2                !
 ! D112  D(9,4,6,44)          -177.4743         estimate D2E/DX2                !
 ! D113  D(1,4,9,8)            -41.9333         estimate D2E/DX2                !
 ! D114  D(1,4,9,10)          -179.6756         estimate D2E/DX2                !
 ! D115  D(1,4,9,11)            95.5367         estimate D2E/DX2                !
 ! D116  D(1,4,9,15)            28.0033         estimate D2E/DX2                !
 ! D117  D(1,4,9,26)          -111.8251         estimate D2E/DX2                !
 ! D118  D(6,4,9,8)             42.2324         estimate D2E/DX2                !
 ! D119  D(6,4,9,10)           -95.5099         estimate D2E/DX2                !
 ! D120  D(6,4,9,11)           179.7025         estimate D2E/DX2                !
 ! D121  D(6,4,9,15)           112.169          estimate D2E/DX2                !
 ! D122  D(6,4,9,26)           -27.6594         estimate D2E/DX2                !
 ! D123  D(1,5,12,2)            40.5552         estimate D2E/DX2                !
 ! D124  D(1,5,12,11)          -98.4619         estimate D2E/DX2                !
 ! D125  D(1,5,12,14)          112.7772         estimate D2E/DX2                !
 ! D126  D(1,5,12,15)          -30.9077         estimate D2E/DX2                !
 ! D127  D(1,5,12,52)          172.5554         estimate D2E/DX2                !
 ! D128  D(21,5,12,2)          -41.5289         estimate D2E/DX2                !
 ! D129  D(21,5,12,11)         179.454          estimate D2E/DX2                !
 ! D130  D(21,5,12,14)          30.693          estimate D2E/DX2                !
 ! D131  D(21,5,12,15)        -112.9918         estimate D2E/DX2                !
 ! D132  D(21,5,12,52)          90.4712         estimate D2E/DX2                !
 ! D133  D(1,5,21,2)           -42.5203         estimate D2E/DX2                !
 ! D134  D(1,5,21,22)         -107.3822         estimate D2E/DX2                !
 ! D135  D(1,5,21,23)           32.6329         estimate D2E/DX2                !
 ! D136  D(1,5,21,48)           55.6644         estimate D2E/DX2                !
 ! D137  D(1,5,21,49)          100.0764         estimate D2E/DX2                !
 ! D138  D(1,5,21,51)         -129.9104         estimate D2E/DX2                !
 ! D139  D(1,5,21,63)          179.5298         estimate D2E/DX2                !
 ! D140  D(12,5,21,2)           41.7606         estimate D2E/DX2                !
 ! D141  D(12,5,21,22)         -23.1013         estimate D2E/DX2                !
 ! D142  D(12,5,21,23)         116.9138         estimate D2E/DX2                !
 ! D143  D(12,5,21,48)         139.9453         estimate D2E/DX2                !
 ! D144  D(12,5,21,49)        -175.6427         estimate D2E/DX2                !
 ! D145  D(12,5,21,51)         -45.6295         estimate D2E/DX2                !
 ! D146  D(12,5,21,63)         -96.1893         estimate D2E/DX2                !
 ! D147  D(4,6,7,13)           -96.9535         estimate D2E/DX2                !
 ! D148  D(4,6,7,18)           179.3971         estimate D2E/DX2                !
 ! D149  D(8,6,7,13)           -28.1022         estimate D2E/DX2                !
 ! D150  D(8,6,7,18)          -111.7516         estimate D2E/DX2                !
 ! D151  D(16,6,7,13)           40.7044         estimate D2E/DX2                !
 ! D152  D(16,6,7,18)          -42.945          estimate D2E/DX2                !
 ! D153  D(43,6,7,13)          114.208          estimate D2E/DX2                !
 ! D154  D(43,6,7,18)           30.5586         estimate D2E/DX2                !
 ! D155  D(44,6,7,13)          179.7155         estimate D2E/DX2                !
 ! D156  D(44,6,7,18)           96.0661         estimate D2E/DX2                !
 ! D157  D(4,6,8,1)            -41.1095         estimate D2E/DX2                !
 ! D158  D(4,6,8,9)             42.4475         estimate D2E/DX2                !
 ! D159  D(7,6,8,1)           -110.9823         estimate D2E/DX2                !
 ! D160  D(7,6,8,9)            -27.4252         estimate D2E/DX2                !
 ! D161  D(16,6,8,1)          -179.6977         estimate D2E/DX2                !
 ! D162  D(16,6,8,9)           -96.1407         estimate D2E/DX2                !
 ! D163  D(43,6,8,1)            96.8218         estimate D2E/DX2                !
 ! D164  D(43,6,8,9)          -179.6212         estimate D2E/DX2                !
 ! D165  D(44,6,8,1)            30.2329         estimate D2E/DX2                !
 ! D166  D(44,6,8,9)           113.7899         estimate D2E/DX2                !
 ! D167  D(4,6,16,13)           30.8202         estimate D2E/DX2                !
 ! D168  D(4,6,16,18)          116.8621         estimate D2E/DX2                !
 ! D169  D(7,6,16,13)          -40.498          estimate D2E/DX2                !
 ! D170  D(7,6,16,18)           45.5439         estimate D2E/DX2                !
 ! D171  D(8,6,16,13)           98.3505         estimate D2E/DX2                !
 ! D172  D(8,6,16,18)         -175.6076         estimate D2E/DX2                !
 ! D173  D(43,6,16,13)        -173.1015         estimate D2E/DX2                !
 ! D174  D(43,6,16,18)         -87.0596         estimate D2E/DX2                !
 ! D175  D(44,6,16,13)        -114.694          estimate D2E/DX2                !
 ! D176  D(44,6,16,18)         -28.6521         estimate D2E/DX2                !
 ! D177  D(4,6,43,42)         -107.5744         estimate D2E/DX2                !
 ! D178  D(4,6,43,45)          -14.6338         estimate D2E/DX2                !
 ! D179  D(7,6,43,42)           24.2243         estimate D2E/DX2                !
 ! D180  D(7,6,43,45)          117.1648         estimate D2E/DX2                !
 ! D181  D(8,6,43,42)          178.9217         estimate D2E/DX2                !
 ! D182  D(8,6,43,45)          -88.1377         estimate D2E/DX2                !
 ! D183  D(16,6,43,42)          96.9679         estimate D2E/DX2                !
 ! D184  D(16,6,43,45)        -170.0915         estimate D2E/DX2                !
 ! D185  D(44,6,43,42)         -46.103          estimate D2E/DX2                !
 ! D186  D(44,6,43,45)          46.8375         estimate D2E/DX2                !
 ! D187  D(4,6,44,42)         -167.7314         estimate D2E/DX2                !
 ! D188  D(4,6,44,45)           97.5333         estimate D2E/DX2                !
 ! D189  D(7,6,44,42)          -84.091          estimate D2E/DX2                !
 ! D190  D(7,6,44,45)         -178.8263         estimate D2E/DX2                !
 ! D191  D(8,6,44,42)          121.9318         estimate D2E/DX2                !
 ! D192  D(8,6,44,45)           27.1965         estimate D2E/DX2                !
 ! D193  D(16,6,44,42)         -11.4866         estimate D2E/DX2                !
 ! D194  D(16,6,44,45)        -106.2218         estimate D2E/DX2                !
 ! D195  D(43,6,44,42)          49.8729         estimate D2E/DX2                !
 ! D196  D(43,6,44,45)         -44.8624         estimate D2E/DX2                !
 ! D197  D(6,7,13,10)           96.9341         estimate D2E/DX2                !
 ! D198  D(6,7,13,16)          -40.437          estimate D2E/DX2                !
 ! D199  D(6,7,13,26)           28.8802         estimate D2E/DX2                !
 ! D200  D(6,7,13,37)         -176.2166         estimate D2E/DX2                !
 ! D201  D(6,7,13,38)         -115.3437         estimate D2E/DX2                !
 ! D202  D(18,7,13,10)         176.9195         estimate D2E/DX2                !
 ! D203  D(18,7,13,16)          39.5484         estimate D2E/DX2                !
 ! D204  D(18,7,13,26)         108.8656         estimate D2E/DX2                !
 ! D205  D(18,7,13,37)         -96.2312         estimate D2E/DX2                !
 ! D206  D(18,7,13,38)         -35.3583         estimate D2E/DX2                !
 ! D207  D(6,7,18,16)           43.6601         estimate D2E/DX2                !
 ! D208  D(6,7,18,19)         -103.2355         estimate D2E/DX2                !
 ! D209  D(6,7,18,20)          -36.9715         estimate D2E/DX2                !
 ! D210  D(6,7,18,40)          174.04           estimate D2E/DX2                !
 ! D211  D(6,7,18,42)          -57.9113         estimate D2E/DX2                !
 ! D212  D(6,7,18,62)          129.9948         estimate D2E/DX2                !
 ! D213  D(13,7,18,16)         -40.4471         estimate D2E/DX2                !
 ! D214  D(13,7,18,19)         172.6574         estimate D2E/DX2                !
 ! D215  D(13,7,18,20)        -121.0786         estimate D2E/DX2                !
 ! D216  D(13,7,18,40)          89.9329         estimate D2E/DX2                !
 ! D217  D(13,7,18,42)        -142.0184         estimate D2E/DX2                !
 ! D218  D(13,7,18,62)          45.8877         estimate D2E/DX2                !
 ! D219  D(1,8,9,4)             42.1646         estimate D2E/DX2                !
 ! D220  D(1,8,9,10)           110.7687         estimate D2E/DX2                !
 ! D221  D(1,8,9,11)           -27.1625         estimate D2E/DX2                !
 ! D222  D(1,8,9,15)           -96.3263         estimate D2E/DX2                !
 ! D223  D(1,8,9,26)          -179.5717         estimate D2E/DX2                !
 ! D224  D(6,8,9,4)            -42.2777         estimate D2E/DX2                !
 ! D225  D(6,8,9,10)            26.3264         estimate D2E/DX2                !
 ! D226  D(6,8,9,11)          -111.6048         estimate D2E/DX2                !
 ! D227  D(6,8,9,15)           179.2314         estimate D2E/DX2                !
 ! D228  D(6,8,9,26)            95.986          estimate D2E/DX2                !
 ! D229  D(4,9,10,13)           96.6618         estimate D2E/DX2                !
 ! D230  D(4,9,10,24)         -179.0916         estimate D2E/DX2                !
 ! D231  D(8,9,10,13)           29.1024         estimate D2E/DX2                !
 ! D232  D(8,9,10,24)          113.349          estimate D2E/DX2                !
 ! D233  D(11,9,10,13)        -179.781          estimate D2E/DX2                !
 ! D234  D(11,9,10,24)         -95.5344         estimate D2E/DX2                !
 ! D235  D(15,9,10,13)        -110.8921         estimate D2E/DX2                !
 ! D236  D(15,9,10,24)         -26.6456         estimate D2E/DX2                !
 ! D237  D(26,9,10,13)         -41.8817         estimate D2E/DX2                !
 ! D238  D(26,9,10,24)          42.3649         estimate D2E/DX2                !
 ! D239  D(4,9,11,12)          -96.9237         estimate D2E/DX2                !
 ! D240  D(4,9,11,27)          179.2828         estimate D2E/DX2                !
 ! D241  D(8,9,11,12)          -28.8249         estimate D2E/DX2                !
 ! D242  D(8,9,11,27)         -112.6184         estimate D2E/DX2                !
 ! D243  D(10,9,11,12)        -179.9847         estimate D2E/DX2                !
 ! D244  D(10,9,11,27)          96.2218         estimate D2E/DX2                !
 ! D245  D(15,9,11,12)          41.8914         estimate D2E/DX2                !
 ! D246  D(15,9,11,27)         -41.902          estimate D2E/DX2                !
 ! D247  D(26,9,11,12)         110.4172         estimate D2E/DX2                !
 ! D248  D(26,9,11,27)          26.6237         estimate D2E/DX2                !
 ! D249  D(4,9,15,12)           26.8187         estimate D2E/DX2                !
 ! D250  D(4,9,15,27)          110.3131         estimate D2E/DX2                !
 ! D251  D(8,9,15,12)           95.2278         estimate D2E/DX2                !
 ! D252  D(8,9,15,27)          178.7222         estimate D2E/DX2                !
 ! D253  D(10,9,15,12)        -112.3531         estimate D2E/DX2                !
 ! D254  D(10,9,15,27)         -28.8587         estimate D2E/DX2                !
 ! D255  D(11,9,15,12)         -41.8706         estimate D2E/DX2                !
 ! D256  D(11,9,15,27)          41.6238         estimate D2E/DX2                !
 ! D257  D(26,9,15,12)         179.5451         estimate D2E/DX2                !
 ! D258  D(26,9,15,27)         -96.9605         estimate D2E/DX2                !
 ! D259  D(4,9,26,13)          -26.9941         estimate D2E/DX2                !
 ! D260  D(4,9,26,24)         -110.7674         estimate D2E/DX2                !
 ! D261  D(8,9,26,13)          -95.3965         estimate D2E/DX2                !
 ! D262  D(8,9,26,24)         -179.1698         estimate D2E/DX2                !
 ! D263  D(10,9,26,13)          41.6756         estimate D2E/DX2                !
 ! D264  D(10,9,26,24)         -42.0977         estimate D2E/DX2                !
 ! D265  D(11,9,26,13)         112.7002         estimate D2E/DX2                !
 ! D266  D(11,9,26,24)          28.927          estimate D2E/DX2                !
 ! D267  D(15,9,26,13)        -179.8534         estimate D2E/DX2                !
 ! D268  D(15,9,26,24)          96.3733         estimate D2E/DX2                !
 ! D269  D(9,10,13,7)          -97.0739         estimate D2E/DX2                !
 ! D270  D(9,10,13,16)         -27.4782         estimate D2E/DX2                !
 ! D271  D(9,10,13,26)          41.8705         estimate D2E/DX2                !
 ! D272  D(9,10,13,37)         179.5251         estimate D2E/DX2                !
 ! D273  D(9,10,13,38)         113.059          estimate D2E/DX2                !
 ! D274  D(24,10,13,7)        -179.7748         estimate D2E/DX2                !
 ! D275  D(24,10,13,16)       -110.1792         estimate D2E/DX2                !
 ! D276  D(24,10,13,26)        -40.8304         estimate D2E/DX2                !
 ! D277  D(24,10,13,37)         96.8241         estimate D2E/DX2                !
 ! D278  D(24,10,13,38)         30.3581         estimate D2E/DX2                !
 ! D279  D(9,10,24,17)        -115.019          estimate D2E/DX2                !
 ! D280  D(9,10,24,25)         179.4099         estimate D2E/DX2                !
 ! D281  D(9,10,24,26)         -42.4967         estimate D2E/DX2                !
 ! D282  D(9,10,24,28)          95.5038         estimate D2E/DX2                !
 ! D283  D(9,10,24,29)          27.8897         estimate D2E/DX2                !
 ! D284  D(13,10,24,17)        -31.5563         estimate D2E/DX2                !
 ! D285  D(13,10,24,25)        -97.1274         estimate D2E/DX2                !
 ! D286  D(13,10,24,26)         40.966          estimate D2E/DX2                !
 ! D287  D(13,10,24,28)        178.9665         estimate D2E/DX2                !
 ! D288  D(13,10,24,29)        111.3524         estimate D2E/DX2                !
 ! D289  D(9,11,12,2)           29.564          estimate D2E/DX2                !
 ! D290  D(9,11,12,5)           96.6649         estimate D2E/DX2                !
 ! D291  D(9,11,12,14)        -112.6685         estimate D2E/DX2                !
 ! D292  D(9,11,12,15)         -42.3963         estimate D2E/DX2                !
 ! D293  D(9,11,12,52)         179.9954         estimate D2E/DX2                !
 ! D294  D(27,11,12,2)         113.5953         estimate D2E/DX2                !
 ! D295  D(27,11,12,5)        -179.3037         estimate D2E/DX2                !
 ! D296  D(27,11,12,14)        -28.6372         estimate D2E/DX2                !
 ! D297  D(27,11,12,15)         41.6351         estimate D2E/DX2                !
 ! D298  D(27,11,12,52)        -95.9733         estimate D2E/DX2                !
 ! D299  D(9,11,27,15)          41.9469         estimate D2E/DX2                !
 ! D300  D(9,11,27,28)         -95.4051         estimate D2E/DX2                !
 ! D301  D(9,11,27,29)         -26.7709         estimate D2E/DX2                !
 ! D302  D(9,11,27,30)         -95.6481         estimate D2E/DX2                !
 ! D303  D(9,11,27,55)        -179.2054         estimate D2E/DX2                !
 ! D304  D(9,11,27,56)         113.3746         estimate D2E/DX2                !
 ! D305  D(12,11,27,15)        -41.1872         estimate D2E/DX2                !
 ! D306  D(12,11,27,28)       -178.5392         estimate D2E/DX2                !
 ! D307  D(12,11,27,29)       -109.905          estimate D2E/DX2                !
 ! D308  D(12,11,27,30)       -178.7822         estimate D2E/DX2                !
 ! D309  D(12,11,27,55)         97.6605         estimate D2E/DX2                !
 ! D310  D(12,11,27,56)         30.2405         estimate D2E/DX2                !
 ! D311  D(2,12,14,51)          85.3781         estimate D2E/DX2                !
 ! D312  D(2,12,14,54)         179.5574         estimate D2E/DX2                !
 ! D313  D(5,12,14,51)          14.6573         estimate D2E/DX2                !
 ! D314  D(5,12,14,54)         108.8366         estimate D2E/DX2                !
 ! D315  D(11,12,14,51)       -120.2306         estimate D2E/DX2                !
 ! D316  D(11,12,14,54)        -26.0513         estimate D2E/DX2                !
 ! D317  D(15,12,14,51)        169.8983         estimate D2E/DX2                !
 ! D318  D(15,12,14,54)        -95.9224         estimate D2E/DX2                !
 ! D319  D(52,12,14,51)        -47.8109         estimate D2E/DX2                !
 ! D320  D(52,12,14,54)         46.3684         estimate D2E/DX2                !
 ! D321  D(2,12,15,9)          -95.3227         estimate D2E/DX2                !
 ! D322  D(2,12,15,27)        -179.1362         estimate D2E/DX2                !
 ! D323  D(5,12,15,9)          -25.0372         estimate D2E/DX2                !
 ! D324  D(5,12,15,27)        -108.8507         estimate D2E/DX2                !
 ! D325  D(11,12,15,9)          42.4452         estimate D2E/DX2                !
 ! D326  D(11,12,15,27)        -41.3683         estimate D2E/DX2                !
 ! D327  D(14,12,15,9)         179.0578         estimate D2E/DX2                !
 ! D328  D(14,12,15,27)         95.2443         estimate D2E/DX2                !
 ! D329  D(52,12,15,9)         120.0101         estimate D2E/DX2                !
 ! D330  D(52,12,15,27)         36.1965         estimate D2E/DX2                !
 ! D331  D(2,12,52,51)         -25.1827         estimate D2E/DX2                !
 ! D332  D(2,12,52,54)        -116.6338         estimate D2E/DX2                !
 ! D333  D(5,12,52,51)         -97.252          estimate D2E/DX2                !
 ! D334  D(5,12,52,54)         171.2969         estimate D2E/DX2                !
 ! D335  D(11,12,52,51)       -178.4528         estimate D2E/DX2                !
 ! D336  D(11,12,52,54)         90.0961         estimate D2E/DX2                !
 ! D337  D(14,12,52,51)         45.1537         estimate D2E/DX2                !
 ! D338  D(14,12,52,54)        -46.2974         estimate D2E/DX2                !
 ! D339  D(15,12,52,51)        106.5971         estimate D2E/DX2                !
 ! D340  D(15,12,52,54)         15.146          estimate D2E/DX2                !
 ! D341  D(7,13,16,6)           40.6718         estimate D2E/DX2                !
 ! D342  D(7,13,16,18)         -42.0198         estimate D2E/DX2                !
 ! D343  D(10,13,16,6)         -29.2028         estimate D2E/DX2                !
 ! D344  D(10,13,16,18)       -111.8944         estimate D2E/DX2                !
 ! D345  D(26,13,16,6)         -98.0193         estimate D2E/DX2                !
 ! D346  D(26,13,16,18)        179.2891         estimate D2E/DX2                !
 ! D347  D(37,13,16,6)         112.3839         estimate D2E/DX2                !
 ! D348  D(37,13,16,18)         29.6923         estimate D2E/DX2                !
 ! D349  D(38,13,16,6)         178.714          estimate D2E/DX2                !
 ! D350  D(38,13,16,18)         96.0224         estimate D2E/DX2                !
 ! D351  D(7,13,26,9)           26.4459         estimate D2E/DX2                !
 ! D352  D(7,13,26,24)         109.161          estimate D2E/DX2                !
 ! D353  D(10,13,26,9)         -42.0937         estimate D2E/DX2                !
 ! D354  D(10,13,26,24)         40.6213         estimate D2E/DX2                !
 ! D355  D(16,13,26,9)          95.4659         estimate D2E/DX2                !
 ! D356  D(16,13,26,24)        178.1809         estimate D2E/DX2                !
 ! D357  D(37,13,26,9)        -116.4513         estimate D2E/DX2                !
 ! D358  D(37,13,26,24)        -33.7362         estimate D2E/DX2                !
 ! D359  D(38,13,26,9)        -177.575          estimate D2E/DX2                !
 ! D360  D(38,13,26,24)        -94.86           estimate D2E/DX2                !
 ! D361  D(7,13,37,36)        -173.8318         estimate D2E/DX2                !
 ! D362  D(7,13,37,39)         104.1904         estimate D2E/DX2                !
 ! D363  D(10,13,37,36)        -91.3306         estimate D2E/DX2                !
 ! D364  D(10,13,37,39)       -173.3084         estimate D2E/DX2                !
 ! D365  D(16,13,37,36)        115.0926         estimate D2E/DX2                !
 ! D366  D(16,13,37,39)         33.1148         estimate D2E/DX2                !
 ! D367  D(26,13,37,36)        -18.9759         estimate D2E/DX2                !
 ! D368  D(26,13,37,39)       -100.9537         estimate D2E/DX2                !
 ! D369  D(38,13,37,36)         44.6554         estimate D2E/DX2                !
 ! D370  D(38,13,37,39)        -37.3224         estimate D2E/DX2                !
 ! D371  D(7,13,38,36)        -105.4628         estimate D2E/DX2                !
 ! D372  D(7,13,38,39)         -23.5755         estimate D2E/DX2                !
 ! D373  D(10,13,38,36)         28.5035         estimate D2E/DX2                !
 ! D374  D(10,13,38,39)        110.3908         estimate D2E/DX2                !
 ! D375  D(16,13,38,36)       -178.5707         estimate D2E/DX2                !
 ! D376  D(16,13,38,39)        -96.6835         estimate D2E/DX2                !
 ! D377  D(26,13,38,36)         98.8602         estimate D2E/DX2                !
 ! D378  D(26,13,38,39)       -179.2525         estimate D2E/DX2                !
 ! D379  D(37,13,38,36)        -42.0813         estimate D2E/DX2                !
 ! D380  D(37,13,38,39)         39.8059         estimate D2E/DX2                !
 ! D381  D(12,14,51,21)        -38.9272         estimate D2E/DX2                !
 ! D382  D(12,14,51,22)        -93.665          estimate D2E/DX2                !
 ! D383  D(12,14,51,52)         46.3398         estimate D2E/DX2                !
 ! D384  D(12,14,51,60)        158.2694         estimate D2E/DX2                !
 ! D385  D(12,14,51,63)         -6.7851         estimate D2E/DX2                !
 ! D386  D(54,14,51,21)       -120.0293         estimate D2E/DX2                !
 ! D387  D(54,14,51,22)       -174.7671         estimate D2E/DX2                !
 ! D388  D(54,14,51,52)        -34.7622         estimate D2E/DX2                !
 ! D389  D(54,14,51,60)         77.1674         estimate D2E/DX2                !
 ! D390  D(54,14,51,63)        -87.8872         estimate D2E/DX2                !
 ! D391  D(12,14,54,52)        -46.9149         estimate D2E/DX2                !
 ! D392  D(12,14,54,53)       -145.832          estimate D2E/DX2                !
 ! D393  D(12,14,54,55)         23.1898         estimate D2E/DX2                !
 ! D394  D(12,14,54,56)        101.3066         estimate D2E/DX2                !
 ! D395  D(12,14,54,57)         99.7764         estimate D2E/DX2                !
 ! D396  D(51,14,54,52)         36.103          estimate D2E/DX2                !
 ! D397  D(51,14,54,53)        -62.8141         estimate D2E/DX2                !
 ! D398  D(51,14,54,55)        106.2078         estimate D2E/DX2                !
 ! D399  D(51,14,54,56)       -175.6755         estimate D2E/DX2                !
 ! D400  D(51,14,54,57)       -177.2056         estimate D2E/DX2                !
 ! D401  D(9,15,27,11)         -42.0267         estimate D2E/DX2                !
 ! D402  D(9,15,27,28)          25.334          estimate D2E/DX2                !
 ! D403  D(9,15,27,29)          96.3572         estimate D2E/DX2                !
 ! D404  D(9,15,27,30)          94.1849         estimate D2E/DX2                !
 ! D405  D(9,15,27,55)        -109.8849         estimate D2E/DX2                !
 ! D406  D(9,15,27,56)         179.2597         estimate D2E/DX2                !
 ! D407  D(12,15,27,11)         41.2064         estimate D2E/DX2                !
 ! D408  D(12,15,27,28)        108.5671         estimate D2E/DX2                !
 ! D409  D(12,15,27,29)        179.5903         estimate D2E/DX2                !
 ! D410  D(12,15,27,30)        177.418          estimate D2E/DX2                !
 ! D411  D(12,15,27,55)        -26.6518         estimate D2E/DX2                !
 ! D412  D(12,15,27,56)        -97.5072         estimate D2E/DX2                !
 ! D413  D(6,16,18,7)          -43.4624         estimate D2E/DX2                !
 ! D414  D(6,16,18,19)          12.6107         estimate D2E/DX2                !
 ! D415  D(6,16,18,20)          97.1179         estimate D2E/DX2                !
 ! D416  D(6,16,18,40)        -138.0296         estimate D2E/DX2                !
[...]
 28,0.00005805,-0.00000200,-0.00015179,-0.00006100,-0.00009442,0.000103
 07,0.00004160,0.00006106,0.00003037,-0.00003127,0.00000436,-0.00002772
 ,0.00000045,-0.00004501,0.00004516,0.00001875,-0.00015114,0.00001353,-
 0.00010029,0.00000051,0.00000812,-0.00002690,0.00001093,-0.00000458,0.
 00000637,0.00013860,0.00011328,0.00009008,-0.00004220,0.00000721,0.000
 02143,-0.00104663,0.00105188,0.00051123,0.00378860,0.00117634,0.004361
 27,-0.00241423,-0.00016047,0.00138357,0.00005181,-0.00003031,0.0001137
 0,0.00004317,0.00001029,-0.00001709,0.00012476,-0.00015619,-0.00008355
 ,0.00002080,-0.00002179,0.00000617,-0.00002243,0.00001165,-0.00000883,
 0.00003042,0.00000288,-0.00000517,-0.00004950,0.00002864,-0.00002838,0
 .00001608,-0.00001132,-0.00000827,0.00000925,-0.00000357,-0.00000497,0
 .00005361,0.00000603,0.00004743,-0.00006162,0.00001671,-0.00002818,-0.
 00004306,0.00000259,-0.00002512,0.00012355,0.00003704,-0.00007899,-0.0
 0002577,0.00001060,-0.00000790,0.00001332,-0.00004942,0.00006566,0.000
 00516,0.00001604,-0.00010491,0.00004811,0.00000061,-0.00003172,-0.0000
 3633,-0.00002114,0.00006076,0.00008502,0.00012110,-0.00014084,-0.00009
 950,-0.00000092,0.00023486,0.00004680,-0.00007525,0.00007649,-0.067512
 74,-0.04423766,0.04588068,-0.00046817,-0.00034925,0.00099187,0.0000884
 9,0.00293186,-0.00190983,-0.00110451,0.00022400,0.00087301,-0.00014775
 ,-0.00014884,-0.00048286,0.00177603,0.00043630,-0.00048537,-0.00006889
 ,0.00026275,0.00033953,-0.00000366,0.00000022,-0.00002278,0.00016487,0
 .00003354,-0.00011202,0.00001465,-0.00003156,0.00011163,0.00000546,0.0
 0000770,-0.00000383,-0.00004706,0.00001607,-0.00001146,0.00004944,-0.0
 0001039,0.00000116,-0.00000121,-0.00000288,0.00000090,-0.00000750,0.00
 000284,0.00000637,0.00006061,-0.00003800,-0.00000104,-0.00006216,0.000
 01639,0.00000397,-0.00000158,-0.00003913,0.00005721,-0.00005049,0.0000
 1916,-0.00001946,0.06827786,0.03961421,0.00037206,-0.00044016,0.000231
 04,-0.00010344,0.00003442,-0.00008716,-0.00035935,-0.00010756,-0.00032
 973,-0.00016848,-0.00009954,-0.00005941,-0.00002383,0.00009254,-0.0000
 4355,0.00300402,0.00090376,0.00013676,-0.00033054,0.00033757,0.0005302
 1,0.00016993,0.00015015,-0.00002968,0.00014102,0.00001073,0.00012198,-
 0.00005731,-0.00002554,0.00001906,-0.00001856,0.00001595,-0.00000345,0
 .00009169,-0.00003989,0.00000390,0.00024682,0.00013139,-0.00006934,0.0
 0000466,-0.00001467,0.00003233,-0.00001202,-0.00001017,-0.00000938,0.0
 0017642,-0.00028346,0.00020309,0.00005290,-0.00000857,-0.00001413,0.00
 000261,-0.00071692,-0.00043986,0.00506643,0.00235921,-0.00881258,-0.00
 101394,0.00290535,0.00052184,-0.00007699,0.00009583,0.00001142,-0.0000
 5934,-0.00000520,0.00001467,-0.00007472,0.00007504,0.00006473,-0.00003
 799,0.00000984,-0.00003164,0.00004093,0.00000178,0.00000755,-0.0000398
 9,-0.00001965,0.00003445,0.00007900,-0.00005232,0.00002555,-0.00002177
 ,0.00001961,0.00002338,-0.00002354,0.00000235,0.00001595,-0.00007377,0
 .00000525,-0.00005295,0.00008866,-0.00002076,0.00003441,0.00006555,-0.
 00000117,0.00003997,-0.00017536,-0.00008697,0.00012728,0.00002724,-0.0
 0001363,-0.00000555,-0.00002280,0.00007787,-0.00010374,-0.00000272,-0.
 00008356,0.00010616,0.00000626,0.00002513,0.00003569,-0.00001841,-0.00
 002478,-0.00004380,-0.00008738,-0.00010069,0.00025542,-0.00023877,-0.0
 0017746,-0.00039381,-0.00008620,0.00011356,-0.00016403,0.10733334,0.04
 870384,-0.09241332,0.00095193,0.00064083,0.00085839,0.00197929,-0.0029
 9401,-0.00042915,0.00179123,0.00058692,-0.00168612,-0.00011562,0.00030
 988,0.00010150,-0.00318409,-0.00053532,0.00121868,0.00020445,0.0002352
 4,-0.00028546,-0.00006033,-0.00001756,-0.00006619,-0.00029960,-0.00007
 726,0.00020268,-0.00005064,0.00003561,-0.00015756,0.00000277,-0.000008
 17,0.00001335,0.00008815,-0.00003008,0.00002288,-0.00009770,0.00002490
 ,-0.00001550,-0.00000044,0.00000343,0.00000211,0.00001118,-0.00000654,
 -0.00000672,-0.00010898,0.00005667,0.00001026,0.00011337,-0.00003030,-
 0.00000522,-0.00000310,0.00007556,-0.00010764,0.00010820,-0.00004049,0
 .00003963,-0.11532116,-0.05210846,0.10100375,0.00007621,-0.00003568,-0
 .00001353,-0.00001475,-0.00000602,-0.00000463,0.00007313,-0.00002771,0
 .00002683,-0.00004027,-0.00006228,0.00005525,-0.00001971,0.00000354,0.
 00000314,0.00036878,0.00000093,0.00018699,-0.00068700,-0.00086697,-0.0
 0064406,0.00006132,-0.00016325,0.00008457,0.00009827,0.00008042,-0.000
 08510,-0.00005998,0.00005690,0.00004419,0.00000643,-0.00000640,0.00003
 545,0.00001741,-0.00001036,0.00000972,-0.00056911,0.00403117,0.0014501
 6,0.00000730,0.00000069,-0.00001276,-0.00002408,-0.00001120,0.00002839
 ,-0.00199705,-0.00061319,-0.00372261,-0.00016695,0.00000051,-0.0003023
 2,-0.01515575,0.01982756,-0.00113814,0.00100084,0.00061555,-0.00154932
 ,-0.00085511,-0.00335046,0.00081857,0.00000194,0.00001651,0.00002100,0
 .00001245,0.00000214,-0.00001238,0.00002061,0.00000446,-0.00001615,-0.
 00006617,-0.00004534,0.00013165,-0.00007565,0.00016543,0.00000438,0.00
 042627,-0.00012723,0.00011612,0.00001126,0.00001492,-0.00006792,0.0000
 0463,-0.00000211,0.00001798,-0.00003452,-0.00002886,-0.00000122,0.0000
 2730,-0.00000364,0.00005111,-0.00003793,0.00001511,-0.00002454,-0.0000
 5073,0.00003885,-0.00002687,0.00029650,-0.00001580,0.00003151,-0.00007
 856,-0.00002410,-0.00005304,-0.00001040,0.00005129,-0.00038401,0.00029
 855,0.00023895,0.00015759,-0.00235095,0.00107465,-0.00079487,-0.005751
 59,-0.00192011,0.00186985,-0.03173735,0.00790280,0.03197582,-0.0014180
 9,-0.02595044,-0.02008504,0.00135067,-0.00252093,0.00024420,0.00217662
 ,0.00064806,0.00084864,0.00019287,-0.00004524,0.00014110,-0.00030094,-
 0.00006716,0.00003543,-0.00015673,0.00019009,-0.00022813,0.00003356,0.
 00001487,0.00003892,-0.00006391,-0.00001542,0.00005091,-0.00002442,0.0
 0003071,-0.00002019,0.00001550,-0.00000386,-0.00000565,-0.00000467,-0.
 00000580,0.00000594,-0.00002511,-0.00002538,0.00004479,0.00000895,0.00
 000968,-0.00000099,0.00000015,0.00000011,0.00000025,-0.00000896,0.0000
 0179,-0.00000123,-0.00000503,-0.00000263,0.00000533,-0.00000318,-0.000
 00261,0.00000983,0.00000172,-0.00001241,0.00001373,-0.00000829,0.00000
 092,0.00000151,-0.00001600,-0.00000210,0.00001324,0.00000915,-0.000000
 97,0.00000012,-0.00007207,0.00009118,0.00007399,0.05527195,0.00013223,
 -0.00001547,-0.00000811,-0.00005623,-0.00000256,-0.00000997,0.00004065
 ,-0.00002671,-0.00003844,-0.00002434,0.00021900,0.00015112,-0.00001838
 ,-0.00000586,-0.00000088,-0.00026189,-0.00160065,-0.00127465,0.0012747
 9,-0.00087087,0.00042019,0.00010780,0.00072349,0.00013876,0.00005454,-
 0.00002929,0.00019998,0.00014092,0.00007099,0.00003855,-0.00000563,-0.
 00003059,0.00003046,0.00001490,-0.00000210,-0.00000842,-0.00077925,-0.
 00068084,-0.00175786,0.00001458,-0.00000426,-0.00001417,-0.00001530,-0
 .00000146,0.00002115,0.00030086,0.00320009,-0.00074182,-0.00012343,0.0
 0003985,0.00017321,0.01756134,-0.05947377,0.02195560,0.00021910,-0.000
 16813,0.00122492,-0.00109448,0.00261633,0.00141062,0.00000111,0.000023
 80,0.00004056,0.00001842,0.00000350,-0.00001997,0.00001538,0.00000342,
 -0.00001382,0.00014955,0.00005650,0.00002511,-0.00033428,0.00017210,-0
 .00003987,0.00003556,-0.00024574,-0.00022295,0.00003403,0.00004011,-0.
 00006443,0.00001436,-0.00000084,0.00000919,-0.00002301,-0.00004463,0.0
 0004493,0.00007598,0.00000463,0.00009672,-0.00005366,0.00002386,-0.000
 04463,-0.00010671,0.00004304,-0.00001082,0.00029185,0.00000325,-0.0000
 6091,-0.00006691,0.00000493,-0.00007637,0.00005944,0.00042727,-0.00006
 196,-0.00112793,-0.00017416,-0.00013200,0.00037891,0.00178560,0.000062
 92,-0.00144316,0.00218271,0.00339475,0.01099735,-0.01508549,-0.0097386
 9,-0.02520579,-0.08736925,-0.06079399,-0.00211328,0.00216406,0.0016024
 7,0.00131254,-0.00176291,0.00013696,-0.00009169,0.00042476,0.00028242,
 -0.00064747,0.00049965,-0.00007108,-0.00013023,0.00015843,-0.00019231,
 -0.00001928,0.00000710,0.00008082,-0.00004036,-0.00005473,0.00001877,0
 .00000524,0.00004260,-0.00007812,0.00001446,-0.00000347,-0.00000800,-0
 .00003429,-0.00002361,0.00003607,-0.00005318,-0.00002939,0.00004745,0.
 00002178,0.00001419,0.00000037,0.00001837,-0.00000662,0.00000689,-0.00
 003802,0.00000895,-0.00000804,-0.00000178,-0.00000350,0.00000954,-0.00
 000675,-0.00000649,0.00001202,-0.00001817,-0.00002205,0.00002799,0.000
 01055,-0.00000508,0.00000298,-0.00000166,0.00001777,0.00000585,0.00003
 812,-0.00000864,0.00000756,-0.00031162,-0.00017292,0.00018309,0.000854
 63,0.15296483,-0.00025596,0.00008348,0.00006713,0.00007024,0.00001686,
 0.00001377,-0.00006528,0.00006361,-0.00007998,-0.00010876,0.00001180,-
 0.00004956,0.00005515,0.00000431,-0.00002278,-0.00043087,0.00032266,0.
 00045055,-0.00010373,0.00149128,0.00041783,0.00005799,-0.00021940,-0.0
 0011792,-0.00006272,0.00001750,0.00007058,0.00015827,0.00031300,0.0000
 1296,0.00000873,0.00001643,-0.00006570,-0.00003255,0.00000042,-0.00000
 316,-0.00133701,-0.00238327,0.00156827,-0.00002642,0.00000151,0.000031
 39,0.00001601,0.00005488,-0.00009642,-0.00058414,0.00206378,-0.0001089
 8,0.00038461,0.00027631,0.00071993,-0.00420568,0.01648847,-0.01539362,
 -0.00026348,-0.00012322,-0.00011546,0.00092314,0.00568005,-0.00740928,
 0.00000309,-0.00006181,-0.00008097,-0.00003773,-0.00000041,0.00004083,
 -0.00007250,0.00000363,0.00004962,0.00010582,0.00018043,-0.00012802,0.
 00015261,0.00023583,0.00007274,0.00005690,0.00008183,-0.00004076,-0.00
 000798,-0.00007835,0.00010595,0.00003446,0.00004902,-0.00003708,0.0000
 0270,0.00005597,-0.00003642,-0.00014384,-0.00001271,-0.00023436,0.0001
 3115,-0.00004731,0.00009490,0.00014035,-0.00003750,0.00003052,-0.00061
 362,0.00002467,0.00023048,0.00020033,-0.00005016,0.00013031,-0.0000804
 0,0.00038198,0.00015953,-0.00053494,-0.00204993,-0.00067355,0.00220846
 ,-0.00205012,0.00012796,-0.00000363,0.00190779,0.00318161,0.03234637,-
 0.00732948,-0.05197148,-0.01915940,-0.05920740,-0.03267430,0.00077046,
 0.00066481,-0.00354347,-0.00042942,-0.00049862,0.00002416,-0.00005419,
 0.00025966,-0.00016540,0.00010264,-0.00005247,0.00004228,0.00016357,-0
 .00021076,0.00009040,-0.00006289,0.00003479,-0.00004023,-0.00001603,-0
 .00000090,-0.00001828,0.00011528,-0.00006343,0.00004652,-0.00003939,0.
 00000006,0.00001627,-0.00001440,0.00000799,0.00000331,0.00005666,0.000
 07921,-0.00013841,-0.00002880,-0.00002442,-0.00000003,0.00001174,-0.00
 000130,-0.00000090,0.00001097,-0.00000702,0.00000693,0.00000628,0.0000
 0903,-0.00001151,0.00000910,0.00000849,-0.00002241,-0.00003243,0.00006
 167,-0.00004777,0.00004382,-0.00000775,-0.00000922,0.00003719,0.000034
 69,-0.00002826,-0.00001554,0.00000041,0.00000203,-0.00005815,-0.000106
 87,-0.00015022,-0.00943828,0.04361359,0.10566314,-0.00214687,0.0015444
 4,-0.00013445,-0.00072930,0.00525454,0.00081332,0.00015396,-0.00095785
 ,-0.00073960,-0.00015674,0.00001189,0.00005279,-0.00712176,0.00607150,
 -0.00311369,-0.00013827,0.00015413,-0.00030494,-0.00009653,-0.00011872
 ,0.00005403,-0.00011834,-0.00006247,-0.00022504,0.00002204,0.00003997,
 0.00007847,-0.00013732,0.00003543,0.00009514,-0.00036646,-0.00032503,0
 .00010738,0.00189970,0.00109085,-0.00099544,0.00020652,0.00012980,-0.0
 0022332,0.00272250,-0.00426763,0.00347439,-0.00012516,0.00004211,0.000
 45488,-0.00003934,-0.00002520,0.00015053,0.00008171,0.00000120,-0.0000
 2125,-0.00005718,0.00008194,0.00006077,-0.00006313,0.00014880,-0.00021
 777,0.00002047,0.00001073,-0.00023104,-0.05249698,0.03519361,-0.002555
 47,0.00443598,-0.00905780,-0.00414393,-0.00330652,-0.00461499,0.005221
 64,-0.00002172,0.00000647,-0.00008828,0.00006731,-0.00004500,-0.000006
 32,-0.00015315,-0.00002414,-0.00000535,0.00019649,-0.00052420,0.000263
 90,-0.00010129,0.00014373,0.00009507,-0.00010590,0.00003955,0.00006767
 ,-0.00059857,-0.00013129,-0.00040784,0.00061035,-0.00019536,0.00028316
 ,0.00010610,-0.00004005,0.00007750,-0.00046930,0.00007526,0.00020855,0
 .00017494,-0.00008304,0.00016246,-0.00000703,0.00004103,-0.00005501,-0
 .00001880,-0.00001483,0.00003280,-0.00003860,0.00002103,0.00000167,-0.
 00003035,-0.00000878,-0.00002437,-0.00002066,-0.00009044,0.00015802,0.
 00001647,0.00002984,-0.00009251,-0.00004922,0.00005973,-0.00007335,0.0
 0058656,-0.00022907,0.00035563,-0.00013178,0.00041943,-0.00022714,-0.0
 0013395,0.00028313,-0.00010812,-0.00043667,-0.00072494,-0.00036447,0.0
 0067944,-0.00048545,-0.00082555,-0.00002258,0.00003713,0.00011836,0.00
 064345,0.00595383,0.00523143,-0.00773811,-0.00160028,0.00265657,-0.000
 26169,0.00072615,-0.00059087,-0.02481036,-0.01451828,-0.00639658,-0.00
 040534,-0.00520699,0.00587591,-0.00005074,0.00028935,-0.00002474,0.000
 72723,0.00020471,0.00049719,-0.00005564,-0.00004339,-0.00018717,0.0004
 8621,0.00008252,0.00015328,-0.00045109,-0.00000679,0.00025982,0.000111
 90,-0.00000131,-0.00004381,0.00004044,-0.00000236,-0.00001920,-0.00235
 730,-0.00203962,-0.00006022,-0.00011359,-0.00002125,0.00007470,0.00002
 068,0.00003883,-0.00006395,0.09167286,0.00317393,-0.00238549,0.0012183
 8,0.00136311,-0.00130371,-0.00031911,0.00017344,-0.00034108,0.00047297
 ,-0.00005741,0.00035866,0.00014168,0.00419638,-0.00042205,0.00192380,-
 0.00017998,-0.00001727,-0.00008359,-0.00000416,0.00004283,-0.00003441,
 -0.00017424,-0.00024513,-0.00005416,0.00020908,0.00017782,-0.00028527,
 0.00007069,-0.00003133,-0.00006965,0.00007891,0.00011655,-0.00027464,-
 0.00094012,-0.00334539,0.00012305,-0.00007804,-0.00008189,0.00017878,0
 .00241742,-0.00228098,0.00265282,-0.00010401,0.00015204,-0.00014226,-0
 .00000205,0.00001799,-0.00003543,-0.00002787,0.00000123,0.00001482,-0.
 00001482,-0.00002954,-0.00001149,0.00003317,-0.00006202,0.00009535,0.0
 0000674,0.00002613,0.00005579,0.04053519,-0.05906518,-0.00684001,-0.00
 345536,-0.01735470,-0.01170099,0.00374256,0.00198461,-0.00325529,-0.00
 004854,0.00002223,0.00004155,-0.00001794,0.00001515,0.00000694,0.00001
 357,0.00003281,-0.00002169,0.00008567,0.00008216,-0.00006896,0.0000879
 9,-0.00005874,-0.00005736,0.00005137,-0.00002120,-0.00006032,0.0001719
 8,0.00008314,0.00013494,-0.00020646,0.00006308,-0.00011814,-0.00003304
 ,0.00000645,-0.00003681,0.00015976,-0.00002278,-0.00009046,-0.00006021
 ,0.00004850,-0.00004189,0.00000364,-0.00002142,0.00002854,0.00000007,0
 .00001397,-0.00001805,0.00001865,-0.00001332,-0.00000949,0.00001577,0.
 00001042,0.00000653,-0.00000144,0.00003945,-0.00006756,-0.00000854,-0.
 00000661,0.00003168,0.00002457,-0.00003077,0.00003842,-0.00024731,0.00
 010392,-0.00013049,-0.00004724,-0.00008712,0.00006190,0.00015780,-0.00
 020042,0.00002820,0.00012961,0.00071012,0.00014866,-0.00013120,-0.0002
 2104,-0.00002491,-0.00001223,-0.00006713,-0.00009312,-0.00310711,-0.00
 067419,-0.00129703,-0.00147263,0.00276001,0.00056546,0.00105942,-0.000
 35088,-0.00062598,-0.03015103,-0.05890807,0.00006052,-0.00164841,-0.00
 007808,0.00663525,0.00017071,-0.00007809,0.00019829,-0.00027680,0.0001
 0118,0.00006751,-0.00011291,-0.00004737,-0.00000490,-0.00008197,0.0002
 0641,-0.00019642,0.00019721,-0.00010321,0.00006028,-0.00009791,0.00003
 899,-0.00001936,-0.00001392,-0.00000683,0.00001912,-0.00280007,0.00333
 683,-0.00059383,0.00007144,0.00000783,-0.00004246,-0.00000876,-0.00001
 473,0.00002275,-0.01279608,0.13741724,0.00302461,-0.00166186,0.0002333
 4,-0.00068162,-0.00217912,0.00021333,-0.00062660,0.00034293,0.00056289
 ,0.00006979,0.00025286,0.00028234,-0.00450107,0.00364239,-0.00172559,-
 0.00031053,-0.00004131,0.00001361,0.00006339,0.00007552,-0.00006096,0.
 00001479,-0.00011873,0.00006895,0.00004518,0.00018032,-0.00002375,0.00
 008925,-0.00003245,-0.00008431,0.00038881,-0.00004971,0.00035730,-0.00
 240688,-0.00014309,-0.00180457,-0.00013745,-0.00010696,0.00018689,0.00
 173714,-0.00046932,0.00116055,0.00000654,0.00038384,0.00002419,0.00005
 105,0.00001584,-0.00006392,-0.00005688,-0.00000232,0.00001539,-0.00001
 127,-0.00008685,-0.00002949,0.00005908,-0.00009331,0.00015304,-0.00001
 354,0.00001146,0.00014525,0.01147008,-0.00653848,-0.01202609,-0.004028
 57,-0.00861721,-0.00062883,-0.00073276,-0.00059888,0.00053554,-0.00000
 749,0.00002278,0.00006445,-0.00005401,0.00004002,-0.00000003,0.0001100
 0,0.00001123,-0.00002176,0.00001780,0.00046389,-0.00029216,0.00008500,
 -0.00009603,-0.00003630,0.00009247,-0.00002369,-0.00003136,0.00038719,
 0.00015720,0.00028368,-0.00043853,0.00015816,-0.00023705,-0.00007596,0
 .00002507,-0.00005939,0.00034287,-0.00007629,-0.00014015,-0.00013181,0
 .00006568,-0.00012477,0.00000326,-0.00002137,0.00002736,0.00001341,0.0
 0000240,-0.00001210,0.00002804,-0.00001471,-0.00000553,0.00002325,0.00
 000552,0.00001526,0.00001372,0.00005711,-0.00010044,-0.00001190,-0.000
 01804,0.00005888,0.00002836,-0.00003316,0.00003975,-0.00042408,0.00017
 169,-0.00027078,0.00010093,-0.00034339,0.00028541,0.00023475,-0.000334
 01,0.00012555,0.00025881,0.00099615,0.00006761,-0.00011781,-0.00053016
 ,-0.00045579,-0.00002642,-0.00004223,-0.00001140,-0.00074056,0.0014202
 7,0.00108413,0.00370552,0.00069868,-0.00135679,0.00035455,-0.00034888,
 0.00005158,-0.00543957,-0.00773123,-0.00735284,0.00303154,0.01027344,-
 0.00786794,0.00025204,-0.00037548,-0.00007599,-0.00007189,0.00085447,-
 0.00227868,-0.00009494,-0.00010366,0.00025195,-0.00042986,-0.00020117,
 -0.00010016,0.00048707,-0.00000465,0.00006930,-0.00018987,0.00001345,-
 0.00003714,-0.00003402,0.00001866,-0.00000594,-0.00030412,-0.00100815,
 0.00032575,0.00009116,0.00001456,-0.00005318,-0.00001519,-0.00002127,0
 .00004401,-0.00456622,0.01169159,0.03062785\\-0.00000578,-0.00000531,-
 0.00000466,0.00000305,-0.00000009,-0.00000018,-0.00000579,-0.00000812,
 0.00000189,0.00000355,0.00000309,-0.00000016,0.00000156,0.00000237,-0.
 00000107,0.00000721,-0.00000320,0.00000609,-0.00000870,0.00000086,-0.0
 0000540,0.00000109,-0.00000128,0.00000027,-0.00000887,0.00000405,-0.00
 000135,0.00000338,-0.00001425,-0.00000362,0.00000424,0.00000416,0.0000
 0057,0.00000104,0.00000096,0.00000068,0.00001188,-0.00001609,0.0000118
 7,-0.00000035,0.00000019,-0.00000236,-0.00000042,-0.00000223,0.0000038
 8,-0.00000368,-0.00000322,-0.00000151,0.00000753,0.00000465,0.00000129
 ,-0.00000476,0.00000699,0.00000769,0.00000036,0.00000969,0.00000348,0.
 00000231,0.00000325,-0.00000949,-0.00000826,0.00000036,-0.00000418,0.0
 0000182,0.00000093,0.00000056,0.00000282,-0.00000075,-0.00000164,-0.00
 002897,-0.00000846,0.00000136,0.00000877,0.00000116,-0.00000847,0.0000
 1009,0.00001208,-0.00000800,0.00000452,-0.00000175,-0.00001331,0.00000
 867,-0.00000259,0.00000103,-0.00000531,-0.00000333,-0.00000069,0.00000
 063,0.00002747,0.00001906,0.00000103,-0.00001318,-0.00001056,0.0000024
 6,-0.00000491,-0.00000116,-0.00000760,0.00000905,-0.00000794,-0.000002
 47,-0.00000286,0.00000003,-0.00000352,-0.00000066,-0.00000111,0.000013
 43,-0.00001437,0.00002028,-0.00000032,0.00000192,-0.00000968,-0.000005
 09,0.00001162,0.00000439,-0.00000519,0.00000577,0.00000275,0.00001641,
 0.00000555,0.00000412,-0.00000215,-0.00000178,0.00000036,0.00000423,-0
 .00002830,-0.00000653,0.00000240,0.00000049,-0.00000393,-0.00000831,0.
 00000342,0.00000490,-0.00000436,0.00002292,0.00000378,0.00000793,0.000
 00414,0.00000186,0.00000298,-0.00000028,-0.00000218,0.00000405,-0.0000
 0733,0.00000353,-0.00000086,-0.00000069,0.00000017,-0.00000046,0.00000
 284,-0.00000006,0.00000171,-0.00000092,0.00000134,-0.00000159,-0.00000
 063,-0.00000304,-0.00000105,0.00000006,0.00000434,0.00000895,-0.000003
 38,0.00000196,-0.00000250,0.,0.00000201,-0.00000064,-0.00000364,0.0000
 0181,-0.00000796,0.00001202,-0.00000315,-0.00000159,-0.00000265,0.0000
 0539,0.00000016,-0.00000430,-0.00000124,-0.00000062,0.00000117,0.00000
 177,0.00000263,-0.00000138,-0.00000224,-0.00001558,-0.00000217,-0.0000
 0620,-0.00000015,0.00000089,0.00000060\\\@
 The archive entry for this job was punched.


 IT IS BETTER TO THINK YOU ARE HALF DRY THAN TO KNOW YOU
 ARE ALL WET.  -- SNOOPY
 Job cpu time:       6 days  3 hours 25 minutes  5.2 seconds.
 Elapsed time:       0 days  3 hours  4 minutes 44.7 seconds.
 File lengths (MBytes):  RWF=  13290 Int=      0 D2E=      0 Chk=    134 Scr=      2
 Normal termination of Gaussian 16 at Tue Feb 21 10:12:27 2023.
