 Entering Gaussian System, Link 0=/apps/GAU16/avx2/g16/g16
 Initial command:
 /apps/GAU16/avx2/g16/l1.exe "/localscratch/chesha/scratch/Gau-185756.inp" -scrdir="/localscratch/chesha/scratch/"
 Entering Link 1 = /apps/GAU16/avx2/g16/l1.exe PID=    185757.
  
 Copyright (c) 1988-2019, Gaussian, Inc.  All Rights Reserved.
  
 This is part of the Gaussian(R) 16 program.  It is based on
 the Gaussian(R) 09 system (copyright 2009, Gaussian, Inc.),
 the Gaussian(R) 03 system (copyright 2003, Gaussian, Inc.),
 the Gaussian(R) 98 system (copyright 1998, Gaussian, Inc.),
 the Gaussian(R) 94 system (copyright 1995, Gaussian, Inc.),
 the Gaussian 92(TM) system (copyright 1992, Gaussian, Inc.),
 the Gaussian 90(TM) system (copyright 1990, Gaussian, Inc.),
 the Gaussian 88(TM) system (copyright 1988, Gaussian, Inc.),
 the Gaussian 86(TM) system (copyright 1986, Carnegie Mellon
 University), and the Gaussian 82(TM) system (copyright 1983,
 Carnegie Mellon University). Gaussian is a federally registered
 trademark of Gaussian, Inc.
  
 This software contains proprietary and confidential information,
 including trade secrets, belonging to Gaussian, Inc.
  
 This software is provided under written license and may be
 used, copied, transmitted, or stored only in accord with that
 written license.
  
 The following legend is applicable only to US Government
 contracts under FAR:
  
                    RESTRICTED RIGHTS LEGEND
  
 Use, reproduction and disclosure by the US Government is
 subject to restrictions as set forth in subparagraphs (a)
 and (c) of the Commercial Computer Software - Restricted
 Rights clause in FAR 52.227-19.
  
 Gaussian, Inc.
 340 Quinnipiac St., Bldg. 40, Wallingford CT 06492
  
  
 ---------------------------------------------------------------
 Warning -- This program may not be used in any manner that
 competes with the business of Gaussian, Inc. or will provide
 assistance to any competitor of Gaussian, Inc.  The licensee
 of this program is prohibited from giving any competitor of
 Gaussian, Inc. access to this program.  By using this program,
 the user acknowledges that Gaussian, Inc. is engaged in the
 business of creating and licensing software in the field of
 computational chemistry and represents and warrants to the
 licensee that it is not a competitor of Gaussian, Inc. and that
 it will not use this program in any manner prohibited above.
 ---------------------------------------------------------------
  

 Cite this work as:
 Gaussian 16, Revision C.01,
 M. J. Frisch, G. W. Trucks, H. B. Schlegel, G. E. Scuseria, 
 M. A. Robb, J. R. Cheeseman, G. Scalmani, V. Barone, 
 G. A. Petersson, H. Nakatsuji, X. Li, M. Caricato, A. V. Marenich, 
 J. Bloino, B. G. Janesko, R. Gomperts, B. Mennucci, H. P. Hratchian, 
 J. V. Ortiz, A. F. Izmaylov, J. L. Sonnenberg, D. Williams-Young, 
 F. Ding, F. Lipparini, F. Egidi, J. Goings, B. Peng, A. Petrone, 
 T. Henderson, D. Ranasinghe, V. G. Zakrzewski, J. Gao, N. Rega, 
 G. Zheng, W. Liang, M. Hada, M. Ehara, K. Toyota, R. Fukuda, 
 J. Hasegawa, M. Ishida, T. Nakajima, Y. Honda, O. Kitao, H. Nakai, 
 T. Vreven, K. Throssell, J. A. Montgomery, Jr., J. E. Peralta, 
 F. Ogliaro, M. J. Bearpark, J. J. Heyd, E. N. Brothers, K. N. Kudin, 
 V. N. Staroverov, T. A. Keith, R. Kobayashi, J. Normand, 
 K. Raghavachari, A. P. Rendell, J. C. Burant, S. S. Iyengar, 
 J. Tomasi, M. Cossi, J. M. Millam, M. Klene, C. Adamo, R. Cammi, 
 J. W. Ochterski, R. L. Martin, K. Morokuma, O. Farkas, 
 J. B. Foresman, and D. J. Fox, Gaussian, Inc., Wallingford CT, 2019.
 
 ******************************************
 Gaussian 16:  ES64L-G16RevC.01  3-Jul-2019
                 8-Mar-2023 
 ******************************************
 %nprocshared=48
 Will use up to   48 processors via shared memory.
 %chk=Mo19S45_ts.chk
 %mem=100GB
 ----------------------------------------------------------------------
 # opt=(calcfc,ts,noeigen) freq b3lyp/gen nosymm pseudo=read scf=maxcyc
 les=500
 ----------------------------------------------------------------------
 1/5=1,10=4,11=1,18=20,26=3,38=1/1,3;
 2/9=110,12=2,15=1,17=6,18=5,40=1/2;
 3/5=7,11=2,16=1,17=8,25=1,30=1,71=2,74=-5,140=1/1,2,3;
 4//1;
 5/5=2,7=500,38=5/2;
 8/6=4,10=90,11=11/1;
 11/6=1,8=1,9=11,15=111,16=1,31=1/1,2,10;
 10/6=1,13=1,31=1/2;
 6/7=2,8=2,9=2,10=2,28=1/1;
 7/10=1,25=1,30=1/1,2,3,16;
 1/5=1,10=4,11=1,18=20,26=3/3(2);
 2/9=110,15=1/2;
 99//99;
 2/9=110,15=1/2;
 3/5=7,6=1,11=2,16=1,17=8,25=1,30=1,71=1,74=-5,82=7/1,2,3;
 4/5=5,16=3,69=1/1;
 5/5=2,7=500,38=5/2;
 7/30=1/1,2,3,16;
 1/5=1,11=1,18=20,26=3/3(-5);
 2/9=110,15=1/2;
 6/7=2,8=2,9=2,10=2,19=2,28=1/1;
 99/9=1/99;
 -------------------
 Title Card Required
 -------------------
 Symbolic Z-matrix:
 Charge =  0 Multiplicity = 1
 42                    0.30941   1.37551   12.58354 
 16                    2.33436   2.28197   13.5991 
 16                   -0.73988   1.98358   14.79323 
 16                   -0.51063   1.0735    10.30256 
 16                    1.90321  -0.31949   11.85897 
 42                   -2.09755   2.79852   10.94726 
 16                   -2.90173   2.53501   8.66 
 16                   -0.09013   3.6958    11.99667 
 42                    0.92707   3.0025    9.87374 
 16                    0.07783   2.7117    7.58951 
 16                    2.53735   1.26291   9.22817 
 42                    3.34296   1.5966    11.49047 
 42                   -1.48378   4.45082   8.25746 
 16                    5.48281   2.58817   12.431 
 16                    2.99039   3.90523   10.85167 
 16                   -2.42225   5.14502   10.38722 
 16                    1.14558   7.01905   6.51753 
 42                   -4.41282   4.23987   9.4319 
 16                   -5.90585   2.15295   9.57766 
 16                   -5.53697   4.83411   11.36268 
 42                    2.636    -0.06074   14.11882 
 16                    4.7441    0.52995   15.29358 
 16                    1.66232   0.54777   16.31885 
 42                    1.51123   4.59836   7.18158 
 16                    0.78123   4.48001   4.79353 
 16                    0.55816   5.34391   9.27143 
 42                    3.96961   3.15813   8.74033 
 16                    3.03525   2.80097   6.52576 
 16                    3.61245   5.46669   8.1161 
 42                    4.46899   4.62904   6.0443 
 16                    6.77154   4.67508   5.98594 
 16                    4.32923   7.08347   5.52762 
 42                    2.43217   6.36703   4.56259 
 16                    3.76604   4.41956   3.85049 
 16                   -1.27666   7.26038   3.87362 
 42                   -0.93049   6.08029   5.5914 
 16                   -2.35169   4.13921   5.84645 
 16                   -1.83675   6.94666   7.66031 
 42                   -3.66563   5.98282   6.54477 
 16                   -5.68019   4.69735   7.34124 
 16                   -4.4722    7.15949   4.99257 
 42                   -5.29095   2.41905   11.6927 
 16                   -3.34714   3.42729   13.04591 
 16                   -3.53146   0.77709   11.49628 
 42                   -2.67785   1.23581   13.76674 
 16                   -1.21177  -0.56746   13.08119 
 16                   -4.0859    0.54964   15.18495 
 42                   -0.04661  -0.57923   15.28866 
 16                    1.22157  -2.19455   14.42143 
 16                   -1.33127  -1.40383   16.75726 
 42                    5.7859    0.39851   13.35725 
 16                    5.08805  -0.17435   11.04273 
 16                    8.35205   1.21194   10.67292 
 42                    6.36394   1.79513   10.25992 
 16                    5.58104   1.27378   8.01968 
 16                    6.21519   4.15174   9.67537 
 42                    6.98431   3.13807   7.71792 
 16                    9.03631   2.6549    7.78008 
 16                    2.19009   7.62632   2.87452 
 16                    7.78722  -0.11278   13.82321 
 16                   -6.89905   1.7256    12.87908 
 16                   -5.18207   6.4221    8.45803 
 16                    4.33341  -1.60375   13.89406 
 

 GradGradGradGradGradGradGradGradGradGradGradGradGradGradGradGradGradGrad
 Berny optimization.
 Initialization pass.
                           ----------------------------
                           !    Initial Parameters    !
                           ! (Angstroms and Degrees)  !
 --------------------------                            --------------------------
 ! Name  Definition              Value          Derivative Info.                !
 --------------------------------------------------------------------------------
 ! R1    R(1,2)                  2.44           calculate D2E/DX2 analytically  !
 ! R2    R(1,3)                  2.5206         calculate D2E/DX2 analytically  !
 ! R3    R(1,4)                  2.4427         calculate D2E/DX2 analytically  !
 ! R4    R(1,5)                  2.4368         calculate D2E/DX2 analytically  !
 ! R5    R(1,8)                  2.4265         calculate D2E/DX2 analytically  !
 ! R6    R(1,46)                 2.5173         calculate D2E/DX2 analytically  !
 ! R7    R(2,12)                 2.4358         calculate D2E/DX2 analytically  !
 ! R8    R(2,21)                 2.4186         calculate D2E/DX2 analytically  !
 ! R9    R(3,45)                 2.317          calculate D2E/DX2 analytically  !
 ! R10   R(3,48)                 2.7008         calculate D2E/DX2 analytically  !
 ! R11   R(4,6)                  2.431          calculate D2E/DX2 analytically  !
 ! R12   R(4,9)                  2.4437         calculate D2E/DX2 analytically  !
 ! R13   R(5,12)                 2.4249         calculate D2E/DX2 analytically  !
 ! R14   R(5,21)                 2.3897         calculate D2E/DX2 analytically  !
 ! R15   R(6,7)                  2.4388         calculate D2E/DX2 analytically  !
 ! R16   R(6,8)                  2.4364         calculate D2E/DX2 analytically  !
 ! R17   R(6,16)                 2.4342         calculate D2E/DX2 analytically  !
 ! R18   R(6,18)                 3.12           calculate D2E/DX2 analytically  !
 ! R19   R(6,43)                 2.5221         calculate D2E/DX2 analytically  !
 ! R20   R(6,44)                 2.5384         calculate D2E/DX2 analytically  !
 ! R21   R(7,13)                 2.4172         calculate D2E/DX2 analytically  !
 ! R22   R(7,18)                 2.4054         calculate D2E/DX2 analytically  !
 ! R23   R(8,9)                  2.454          calculate D2E/DX2 analytically  !
 ! R24   R(9,10)                 2.4543         calculate D2E/DX2 analytically  !
 ! R25   R(9,11)                 2.4568         calculate D2E/DX2 analytically  !
 ! R26   R(9,15)                 2.4553         calculate D2E/DX2 analytically  !
 ! R27   R(9,26)                 2.4456         calculate D2E/DX2 analytically  !
 ! R28   R(10,13)                2.4309         calculate D2E/DX2 analytically  !
 ! R29   R(10,24)                2.4043         calculate D2E/DX2 analytically  !
 ! R30   R(11,12)                2.4245         calculate D2E/DX2 analytically  !
 ! R31   R(11,27)                2.4251         calculate D2E/DX2 analytically  !
 ! R32   R(12,14)                2.539          calculate D2E/DX2 analytically  !
 ! R33   R(12,15)                2.4212         calculate D2E/DX2 analytically  !
 ! R34   R(12,52)                2.5263         calculate D2E/DX2 analytically  !
 ! R35   R(13,16)                2.4287         calculate D2E/DX2 analytically  !
 ! R36   R(13,26)                2.4485         calculate D2E/DX2 analytically  !
 ! R37   R(13,37)                2.5813         calculate D2E/DX2 analytically  !
 ! R38   R(13,38)                2.5904         calculate D2E/DX2 analytically  !
 ! R39   R(14,51)                2.3968         calculate D2E/DX2 analytically  !
 ! R40   R(14,54)                2.4736         calculate D2E/DX2 analytically  !
 ! R41   R(15,27)                2.4443         calculate D2E/DX2 analytically  !
 ! R42   R(16,18)                2.3863         calculate D2E/DX2 analytically  !
 ! R43   R(17,24)                2.5366         calculate D2E/DX2 analytically  !
 ! R44   R(17,33)                2.4295         calculate D2E/DX2 analytically  !
 ! R45   R(17,36)                2.4595         calculate D2E/DX2 analytically  !
 ! R46   R(18,19)                2.5701         calculate D2E/DX2 analytically  !
 ! R47   R(18,20)                2.3119         calculate D2E/DX2 analytically  !
 ! R48   R(18,40)                2.4872         calculate D2E/DX2 analytically  !
 ! R49   R(18,42)                3.0328         calculate D2E/DX2 analytically  !
 ! R50   R(18,62)                2.5104         calculate D2E/DX2 analytically  !
 ! R51   R(19,42)                2.2186         calculate D2E/DX2 analytically  !
 ! R52   R(20,42)                2.4499         calculate D2E/DX2 analytically  !
 ! R53   R(21,22)                2.4846         calculate D2E/DX2 analytically  !
 ! R54   R(21,23)                2.4816         calculate D2E/DX2 analytically  !
 ! R55   R(21,48)                2.9722         calculate D2E/DX2 analytically  !
 ! R56   R(21,49)                2.5779         calculate D2E/DX2 analytically  !
 ! R57   R(21,63)                2.3049         calculate D2E/DX2 analytically  !
 ! R58   R(22,51)                2.2027         calculate D2E/DX2 analytically  !
 ! R59   R(23,48)                2.2917         calculate D2E/DX2 analytically  !
 ! R60   R(24,25)                2.4999         calculate D2E/DX2 analytically  !
 ! R61   R(24,26)                2.4149         calculate D2E/DX2 analytically  !
 ! R62   R(24,28)                2.4461         calculate D2E/DX2 analytically  !
 ! R63   R(24,29)                2.4581         calculate D2E/DX2 analytically  !
 ! R64   R(25,33)                2.5179         calculate D2E/DX2 analytically  !
 ! R65   R(25,36)                2.4754         calculate D2E/DX2 analytically  !
 ! R66   R(27,28)                2.43           calculate D2E/DX2 analytically  !
 ! R67   R(27,29)                2.418          calculate D2E/DX2 analytically  !
 ! R68   R(27,30)                3.1115         calculate D2E/DX2 analytically  !
 ! R69   R(27,55)                2.582          calculate D2E/DX2 analytically  !
 ! R70   R(27,56)                2.6276         calculate D2E/DX2 analytically  !
 ! R71   R(28,30)                2.3726         calculate D2E/DX2 analytically  !
 ! R72   R(29,30)                2.3932         calculate D2E/DX2 analytically  !
 ! R73   R(30,31)                2.3038         calculate D2E/DX2 analytically  !
 ! R74   R(30,32)                2.5121         calculate D2E/DX2 analytically  !
 ! R75   R(30,33)                3.0602         calculate D2E/DX2 analytically  !
 ! R76   R(30,34)                2.3132         calculate D2E/DX2 analytically  !
 ! R77   R(31,57)                2.3254         calculate D2E/DX2 analytically  !
 ! R78   R(32,33)                2.2458         calculate D2E/DX2 analytically  !
 ! R79   R(33,34)                2.4655         calculate D2E/DX2 analytically  !
 ! R80   R(33,59)                2.1199         calculate D2E/DX2 analytically  !
 ! R81   R(35,36)                2.1126         calculate D2E/DX2 analytically  !
 ! R82   R(36,37)                2.4192         calculate D2E/DX2 analytically  !
 ! R83   R(36,38)                2.4191         calculate D2E/DX2 analytically  !
 ! R84   R(36,39)                2.8982         calculate D2E/DX2 analytically  !
 ! R85   R(37,39)                2.3692         calculate D2E/DX2 analytically  !
 ! R86   R(38,39)                2.3491         calculate D2E/DX2 analytically  !
 ! R87   R(39,40)                2.519          calculate D2E/DX2 analytically  !
 ! R88   R(39,41)                2.1082         calculate D2E/DX2 analytically  !
 ! R89   R(39,62)                2.4805         calculate D2E/DX2 analytically  !
 ! R90   R(40,62)                2.1143         calculate D2E/DX2 analytically  !
 ! R91   R(42,43)                2.5741         calculate D2E/DX2 analytically  !
 ! R92   R(42,44)                2.4146         calculate D2E/DX2 analytically  !
 ! R93   R(42,61)                2.1153         calculate D2E/DX2 analytically  !
 ! R94   R(43,45)                2.4021         calculate D2E/DX2 analytically  !
 ! R95   R(44,45)                2.4686         calculate D2E/DX2 analytically  !
 ! R96   R(45,46)                2.423          calculate D2E/DX2 analytically  !
 ! R97   R(45,47)                2.113          calculate D2E/DX2 analytically  !
 ! R98   R(46,48)                2.4961         calculate D2E/DX2 analytically  !
 ! R99   R(48,49)                2.2293         calculate D2E/DX2 analytically  !
 ! R100  R(48,50)                2.1183         calculate D2E/DX2 analytically  !
 ! R101  R(51,52)                2.4844         calculate D2E/DX2 analytically  !
 ! R102  R(51,60)                2.1175         calculate D2E/DX2 analytically  !
 ! R103  R(51,63)                2.5312         calculate D2E/DX2 analytically  !
 ! R104  R(52,54)                2.4738         calculate D2E/DX2 analytically  !
 ! R105  R(53,54)                2.1126         calculate D2E/DX2 analytically  !
 ! R106  R(54,55)                2.4297         calculate D2E/DX2 analytically  !
 ! R107  R(54,56)                2.4326         calculate D2E/DX2 analytically  !
 ! R108  R(54,57)                2.9411         calculate D2E/DX2 analytically  !
 ! R109  R(55,57)                2.3528         calculate D2E/DX2 analytically  !
 ! R110  R(56,57)                2.3347         calculate D2E/DX2 analytically  !
 ! R111  R(57,58)                2.109          calculate D2E/DX2 analytically  !
 ! A1    A(2,1,3)               83.7411         calculate D2E/DX2 analytically  !
 ! A2    A(2,1,4)              135.497          calculate D2E/DX2 analytically  !
 ! A3    A(2,1,5)               80.7565         calculate D2E/DX2 analytically  !
 ! A4    A(2,1,8)               83.2273         calculate D2E/DX2 analytically  !
 ! A5    A(2,1,46)             134.9081         calculate D2E/DX2 analytically  !
 ! A6    A(3,1,4)              135.1292         calculate D2E/DX2 analytically  !
 ! A7    A(3,1,5)              134.4857         calculate D2E/DX2 analytically  !
 ! A8    A(3,1,8)               84.9975         calculate D2E/DX2 analytically  !
 ! A9    A(3,1,46)              76.1926         calculate D2E/DX2 analytically  !
 ! A10   A(4,1,5)               81.7155         calculate D2E/DX2 analytically  !
 ! A11   A(4,1,8)               80.6244         calculate D2E/DX2 analytically  !
 ! A12   A(4,1,46)              83.4717         calculate D2E/DX2 analytically  !
 ! A13   A(5,1,8)              134.4995         calculate D2E/DX2 analytically  !
 ! A14   A(5,1,46)              85.2472         calculate D2E/DX2 analytically  !
 ! A15   A(8,1,46)             133.3445         calculate D2E/DX2 analytically  !
 ! A16   A(1,2,12)              83.0388         calculate D2E/DX2 analytically  !
 ! A17   A(1,2,21)              80.3917         calculate D2E/DX2 analytically  !
 ! A18   A(12,2,21)             82.0585         calculate D2E/DX2 analytically  !
 ! A19   A(1,3,45)              83.2204         calculate D2E/DX2 analytically  !
 ! A20   A(1,3,48)              79.9235         calculate D2E/DX2 analytically  !
 ! A21   A(45,3,48)             89.4112         calculate D2E/DX2 analytically  !
 ! A22   A(1,4,6)               83.3253         calculate D2E/DX2 analytically  !
 ! A23   A(1,4,9)               82.4587         calculate D2E/DX2 analytically  !
 ! A24   A(6,4,9)               82.5569         calculate D2E/DX2 analytically  !
 ! A25   A(1,5,12)              83.3327         calculate D2E/DX2 analytically  !
 ! A26   A(1,5,21)              81.0288         calculate D2E/DX2 analytically  !
 ! A27   A(12,5,21)             82.8821         calculate D2E/DX2 analytically  !
 ! A28   A(4,6,7)               83.6763         calculate D2E/DX2 analytically  !
 ! A29   A(4,6,8)               80.6598         calculate D2E/DX2 analytically  !
 ! A30   A(4,6,16)             135.2434         calculate D2E/DX2 analytically  !
 ! A31   A(4,6,18)             133.1122         calculate D2E/DX2 analytically  !
 ! A32   A(4,6,43)             136.1374         calculate D2E/DX2 analytically  !
 ! A33   A(4,6,44)              82.0119         calculate D2E/DX2 analytically  !
 ! A34   A(7,6,8)              135.6784         calculate D2E/DX2 analytically  !
 ! A35   A(7,6,16)              81.048          calculate D2E/DX2 analytically  !
 ! A36   A(7,6,43)             130.0878         calculate D2E/DX2 analytically  !
 ! A37   A(7,6,44)              86.0167         calculate D2E/DX2 analytically  !
 ! A38   A(8,6,16)              81.6041         calculate D2E/DX2 analytically  !
 ! A39   A(8,6,18)             130.5777         calculate D2E/DX2 analytically  !
 ! A40   A(8,6,43)              87.5932         calculate D2E/DX2 analytically  !
 ! A41   A(8,6,44)             131.7232         calculate D2E/DX2 analytically  !
 ! A42   A(16,6,43)             83.3982         calculate D2E/DX2 analytically  !
 ! A43   A(16,6,44)            137.9072         calculate D2E/DX2 analytically  !
 ! A44   A(18,6,43)             85.4869         calculate D2E/DX2 analytically  !
 ! A45   A(18,6,44)             93.081          calculate D2E/DX2 analytically  !
 ! A46   A(43,6,44)             74.8524         calculate D2E/DX2 analytically  !
 ! A47   A(6,7,13)              82.9416         calculate D2E/DX2 analytically  !
 ! A48   A(13,7,18)             81.9636         calculate D2E/DX2 analytically  !
 ! A49   A(1,8,6)               83.5508         calculate D2E/DX2 analytically  !
 ! A50   A(1,8,9)               82.5783         calculate D2E/DX2 analytically  !
 ! A51   A(6,8,9)               82.2341         calculate D2E/DX2 analytically  !
 ! A52   A(4,9,8)               80.0578         calculate D2E/DX2 analytically  !
 ! A53   A(4,9,10)              82.3116         calculate D2E/DX2 analytically  !
 ! A54   A(4,9,11)              82.6918         calculate D2E/DX2 analytically  !
 ! A55   A(4,9,15)             135.6205         calculate D2E/DX2 analytically  !
 ! A56   A(4,9,26)             135.2507         calculate D2E/DX2 analytically  !
 ! A57   A(8,9,10)             134.0423         calculate D2E/DX2 analytically  !
 ! A58   A(8,9,11)             134.3499         calculate D2E/DX2 analytically  !
 ! A59   A(8,9,15)              84.2552         calculate D2E/DX2 analytically  !
 ! A60   A(8,9,26)              83.1106         calculate D2E/DX2 analytically  !
 ! A61   A(10,9,11)             84.1651         calculate D2E/DX2 analytically  !
 ! A62   A(10,9,15)            134.8329         calculate D2E/DX2 analytically  !
 ! A63   A(10,9,26)             80.33           calculate D2E/DX2 analytically  !
 ! A64   A(11,9,15)             79.2921         calculate D2E/DX2 analytically  !
 ! A65   A(11,9,26)            135.402          calculate D2E/DX2 analytically  !
 ! A66   A(15,9,26)             82.6953         calculate D2E/DX2 analytically  !
 ! A67   A(9,10,13)             83.2108         calculate D2E/DX2 analytically  !
 ! A68   A(9,10,24)             81.8733         calculate D2E/DX2 analytically  !
 ! A69   A(13,10,24)            82.4269         calculate D2E/DX2 analytically  !
 ! A70   A(9,11,12)             82.8278         calculate D2E/DX2 analytically  !
 ! A71   A(9,11,27)             83.4889         calculate D2E/DX2 analytically  !
 ! A72   A(12,11,27)            83.3332         calculate D2E/DX2 analytically  !
 ! A73   A(2,12,5)              81.0792         calculate D2E/DX2 analytically  !
 ! A74   A(2,12,11)            135.1441         calculate D2E/DX2 analytically  !
 ! A75   A(2,12,14)             85.3203         calculate D2E/DX2 analytically  !
 ! A76   A(2,12,15)             84.2498         calculate D2E/DX2 analytically  !
 ! A77   A(2,12,52)            129.5457         calculate D2E/DX2 analytically  !
 ! A78   A(5,12,11)             80.5469         calculate D2E/DX2 analytically  !
 ! A79   A(5,12,14)            138.8234         calculate D2E/DX2 analytically  !
 ! A80   A(5,12,15)            134.9975         calculate D2E/DX2 analytically  !
 ! A81   A(5,12,52)             83.2896         calculate D2E/DX2 analytically  !
 ! A82   A(11,12,14)           132.7987         calculate D2E/DX2 analytically  !
 ! A83   A(11,12,15)            80.5995         calculate D2E/DX2 analytically  !
 ! A84   A(11,12,52)            88.1476         calculate D2E/DX2 analytically  !
 ! A85   A(14,12,15)            81.262          calculate D2E/DX2 analytically  !
 ! A86   A(14,12,52)            75.9511         calculate D2E/DX2 analytically  !
 ! A87   A(15,12,52)           136.241          calculate D2E/DX2 analytically  !
 ! A88   A(7,13,10)             81.6956         calculate D2E/DX2 analytically  !
 ! A89   A(7,13,16)             81.5955         calculate D2E/DX2 analytically  !
 ! A90   A(7,13,26)            135.1795         calculate D2E/DX2 analytically  !
 ! A91   A(7,13,37)             82.1046         calculate D2E/DX2 analytically  !
 ! A92   A(7,13,38)            136.227          calculate D2E/DX2 analytically  !
 ! A93   A(10,13,16)           133.9214         calculate D2E/DX2 analytically  !
 ! A94   A(10,13,26)            80.7356         calculate D2E/DX2 analytically  !
 ! A95   A(10,13,37)            82.7029         calculate D2E/DX2 analytically  !
 ! A96   A(10,13,38)           135.519          calculate D2E/DX2 analytically  !
 ! A97   A(16,13,26)            81.6536         calculate D2E/DX2 analytically  !
 ! A98   A(16,13,37)           136.3558         calculate D2E/DX2 analytically  !
 ! A99   A(16,13,38)            82.7675         calculate D2E/DX2 analytically  !
 ! A100  A(26,13,37)           135.3338         calculate D2E/DX2 analytically  !
 ! A101  A(26,13,38)            81.8171         calculate D2E/DX2 analytically  !
 ! A102  A(37,13,38)            81.6735         calculate D2E/DX2 analytically  !
 ! A103  A(12,14,51)            83.8546         calculate D2E/DX2 analytically  !
 ! A104  A(12,14,54)            81.3661         calculate D2E/DX2 analytically  !
 ! A105  A(51,14,54)            90.0715         calculate D2E/DX2 analytically  !
 ! A106  A(9,15,12)             82.9279         calculate D2E/DX2 analytically  !
 ! A107  A(9,15,27)             83.1219         calculate D2E/DX2 analytically  !
 ! A108  A(12,15,27)            82.9994         calculate D2E/DX2 analytically  !
 ! A109  A(6,16,13)             82.8006         calculate D2E/DX2 analytically  !
 ! A110  A(13,16,18)            82.1168         calculate D2E/DX2 analytically  !
 ! A111  A(24,17,33)            83.004          calculate D2E/DX2 analytically  !
 ! A112  A(24,17,36)            81.721          calculate D2E/DX2 analytically  !
 ! A113  A(33,17,36)            92.3828         calculate D2E/DX2 analytically  !
 ! A114  A(6,18,19)             91.6284         calculate D2E/DX2 analytically  !
 ! A115  A(6,18,20)             94.2405         calculate D2E/DX2 analytically  !
 ! A116  A(6,18,40)            150.6159         calculate D2E/DX2 analytically  !
 ! A117  A(6,18,42)             64.877          calculate D2E/DX2 analytically  !
 ! A118  A(6,18,62)            144.8235         calculate D2E/DX2 analytically  !
 ! A119  A(7,18,16)             82.7199         calculate D2E/DX2 analytically  !
 ! A120  A(7,18,19)             78.9084         calculate D2E/DX2 analytically  !
 ! A121  A(7,18,20)            139.0831         calculate D2E/DX2 analytically  !
 ! A122  A(7,18,40)            100.4123         calculate D2E/DX2 analytically  !
 ! A123  A(7,18,42)             89.747          calculate D2E/DX2 analytically  !
 ! A124  A(7,18,62)            133.1666         calculate D2E/DX2 analytically  !
 ! A125  A(16,18,19)           140.3427         calculate D2E/DX2 analytically  !
 ! A126  A(16,18,20)            88.4969         calculate D2E/DX2 analytically  !
 ! A127  A(16,18,40)           133.7725         calculate D2E/DX2 analytically  !
 ! A128  A(16,18,42)            99.8359         calculate D2E/DX2 analytically  !
 ! A129  A(16,18,62)            94.657          calculate D2E/DX2 analytically  !
 ! A130  A(19,18,20)            83.043          calculate D2E/DX2 analytically  !
 ! A131  A(19,18,40)            84.3192         calculate D2E/DX2 analytically  !
 ! A132  A(19,18,62)           123.3552         calculate D2E/DX2 analytically  !
 ! A133  A(20,18,40)           114.0135         calculate D2E/DX2 analytically  !
 ! A134  A(20,18,62)            87.2231         calculate D2E/DX2 analytically  !
 ! A135  A(40,18,42)           126.1203         calculate D2E/DX2 analytically  !
 ! A136  A(42,18,62)           136.2488         calculate D2E/DX2 analytically  !
 ! A137  A(2,21,5)              82.1502         calculate D2E/DX2 analytically  !
 ! A138  A(2,21,22)             88.6898         calculate D2E/DX2 analytically  !
 ! A139  A(2,21,23)             84.4944         calculate D2E/DX2 analytically  !
 ! A140  A(2,21,48)             98.1052         calculate D2E/DX2 analytically  !
 ! A141  A(2,21,49)            139.3397         calculate D2E/DX2 analytically  !
 ! A142  A(2,21,63)            136.0003         calculate D2E/DX2 analytically  !
 ! A143  A(5,21,22)            137.1419         calculate D2E/DX2 analytically  !
 ! A144  A(5,21,23)            138.1233         calculate D2E/DX2 analytically  !
 ! A145  A(5,21,48)             94.3905         calculate D2E/DX2 analytically  !
 ! A146  A(5,21,49)             81.5548         calculate D2E/DX2 analytically  !
 ! A147  A(5,21,63)             93.5041         calculate D2E/DX2 analytically  !
 ! A148  A(22,21,23)            81.688          calculate D2E/DX2 analytically  !
 ! A149  A(22,21,48)           128.4031         calculate D2E/DX2 analytically  !
 ! A150  A(22,21,49)           127.3611         calculate D2E/DX2 analytically  !
 ! A151  A(22,21,63)            65.1917         calculate D2E/DX2 analytically  !
 ! A152  A(23,21,49)            83.317          calculate D2E/DX2 analytically  !
 ! A153  A(23,21,63)           122.6527         calculate D2E/DX2 analytically  !
 ! A154  A(48,21,63)           125.8941         calculate D2E/DX2 analytically  !
 ! A155  A(49,21,63)            82.0323         calculate D2E/DX2 analytically  !
 ! A156  A(21,22,51)            88.3652         calculate D2E/DX2 analytically  !
 ! A157  A(10,24,17)           135.0181         calculate D2E/DX2 analytically  !
 ! A158  A(10,24,25)            87.182          calculate D2E/DX2 analytically  !
 ! A159  A(10,24,26)            81.9604         calculate D2E/DX2 analytically  !
 ! A160  A(10,24,28)            80.8124         calculate D2E/DX2 analytically  !
 ! A161  A(10,24,29)           136.2459         calculate D2E/DX2 analytically  !
 ! A162  A(17,24,25)            75.7008         calculate D2E/DX2 analytically  !
 ! A163  A(17,24,26)            82.8213         calculate D2E/DX2 analytically  !
 ! A164  A(17,24,28)           136.1242         calculate D2E/DX2 analytically  !
 ! A165  A(17,24,29)            83.4332         calculate D2E/DX2 analytically  !
 ! A166  A(25,24,26)           136.5558         calculate D2E/DX2 analytically  !
 ! A167  A(25,24,28)            83.7445         calculate D2E/DX2 analytically  !
 ! A168  A(25,24,29)           129.0123         calculate D2E/DX2 analytically  !
 ! A169  A(26,24,28)           134.8112         calculate D2E/DX2 analytically  !
 ! A170  A(26,24,29)            84.2203         calculate D2E/DX2 analytically  !
 ! A171  A(28,24,29)            80.149          calculate D2E/DX2 analytically  !
 ! A172  A(24,25,33)            81.9911         calculate D2E/DX2 analytically  !
 ! A173  A(24,25,36)            82.1499         calculate D2E/DX2 analytically  !
 ! A174  A(33,25,36)            89.9123         calculate D2E/DX2 analytically  !
 ! A175  A(9,26,13)             83.026          calculate D2E/DX2 analytically  !
 ! A176  A(9,26,24)             81.8376         calculate D2E/DX2 analytically  !
 ! A177  A(13,26,24)            81.8445         calculate D2E/DX2 analytically  !
 ! A178  A(11,27,15)            80.1252         calculate D2E/DX2 analytically  !
 ! A179  A(11,27,28)            80.8729         calculate D2E/DX2 analytically  !
 ! A180  A(11,27,29)           135.3019         calculate D2E/DX2 analytically  !
 ! A181  A(11,27,30)           129.6819         calculate D2E/DX2 analytically  !
 ! A182  A(11,27,55)            81.628          calculate D2E/DX2 analytically  !
 ! A183  A(11,27,56)           136.7745         calculate D2E/DX2 analytically  !
 ! A184  A(15,27,28)           132.6934         calculate D2E/DX2 analytically  !
 ! A185  A(15,27,29)            82.6463         calculate D2E/DX2 analytically  !
 ! A186  A(15,27,30)           131.931          calculate D2E/DX2 analytically  !
 ! A187  A(15,27,55)           135.5741         calculate D2E/DX2 analytically  !
 ! A188  A(15,27,56)            85.3775         calculate D2E/DX2 analytically  !
 ! A189  A(28,27,29)            81.2722         calculate D2E/DX2 analytically  !
 ! A190  A(28,27,55)            83.0126         calculate D2E/DX2 analytically  !
 ! A191  A(28,27,56)           135.113          calculate D2E/DX2 analytically  !
 ! A192  A(29,27,55)           135.7992         calculate D2E/DX2 analytically  !
 ! A193  A(29,27,56)            81.7827         calculate D2E/DX2 analytically  !
 ! A194  A(30,27,55)            90.172          calculate D2E/DX2 analytically  !
 ! A195  A(30,27,56)            89.5656         calculate D2E/DX2 analytically  !
 ! A196  A(55,27,56)            80.9049         calculate D2E/DX2 analytically  !
 ! A197  A(24,28,27)            83.5247         calculate D2E/DX2 analytically  !
 ! A198  A(24,28,30)            82.2268         calculate D2E/DX2 analytically  !
 ! A199  A(24,29,27)            83.5203         calculate D2E/DX2 analytically  !
 ! A200  A(24,29,30)            81.5576         calculate D2E/DX2 analytically  !
 ! A201  A(27,30,31)           101.0584         calculate D2E/DX2 analytically  !
 ! A202  A(27,30,32)           129.1357         calculate D2E/DX2 analytically  !
 ! A203  A(27,30,33)           125.5346         calculate D2E/DX2 analytically  !
 ! A204  A(27,30,34)           136.9007         calculate D2E/DX2 analytically  !
 ! A205  A(28,30,29)            82.9771         calculate D2E/DX2 analytically  !
 ! A206  A(28,30,31)           128.6466         calculate D2E/DX2 analytically  !
 ! A207  A(28,30,32)           139.5451         calculate D2E/DX2 analytically  !
 ! A208  A(28,30,33)            97.6797         calculate D2E/DX2 analytically  !
 ! A209  A(28,30,34)            86.505          calculate D2E/DX2 analytically  !
 ! A210  A(29,30,31)           111.8789         calculate D2E/DX2 analytically  !
 ! A211  A(29,30,32)            79.4072         calculate D2E/DX2 analytically  !
 ! A212  A(29,30,33)            88.978          calculate D2E/DX2 analytically  !
 ! A213  A(29,30,34)           138.0684         calculate D2E/DX2 analytically  !
 ! A214  A(31,30,32)            91.7688         calculate D2E/DX2 analytically  !
 ! A215  A(31,30,33)           129.9131         calculate D2E/DX2 analytically  !
 ! A216  A(31,30,34)           106.3506         calculate D2E/DX2 analytically  !
 ! A217  A(32,30,34)            82.9066         calculate D2E/DX2 analytically  !
 ! A218  A(30,31,57)            93.4036         calculate D2E/DX2 analytically  !
 ! A219  A(17,33,25)            77.2966         calculate D2E/DX2 analytically  !
 ! A220  A(17,33,30)            96.6199         calculate D2E/DX2 analytically  !
 ! A221  A(17,33,32)            90.9138         calculate D2E/DX2 analytically  !
 ! A222  A(17,33,34)           136.9618         calculate D2E/DX2 analytically  !
 ! A223  A(17,33,59)           114.8891         calculate D2E/DX2 analytically  !
 ! A224  A(25,33,30)            88.0728         calculate D2E/DX2 analytically  !
 ! A225  A(25,33,32)           138.8989         calculate D2E/DX2 analytically  !
 ! A226  A(25,33,34)            77.8339         calculate D2E/DX2 analytically  !
 ! A227  A(25,33,59)           116.3182         calculate D2E/DX2 analytically  !
 ! A228  A(30,33,59)           143.0287         calculate D2E/DX2 analytically  !
 ! A229  A(32,33,34)            85.359          calculate D2E/DX2 analytically  !
 ! A230  A(32,33,59)           104.4262         calculate D2E/DX2 analytically  !
 ! A231  A(34,33,59)           107.5181         calculate D2E/DX2 analytically  !
 ! A232  A(17,36,25)            77.5509         calculate D2E/DX2 analytically  !
 ! A233  A(17,36,35)           103.3727         calculate D2E/DX2 analytically  !
 ! A234  A(17,36,37)           139.6793         calculate D2E/DX2 analytically  !
 ! A235  A(17,36,38)            81.8067         calculate D2E/DX2 analytically  !
 ! A236  A(17,36,39)           133.2823         calculate D2E/DX2 analytically  !
 ! A237  A(25,36,35)           102.2594         calculate D2E/DX2 analytically  !
 ! A238  A(25,36,37)            85.4978         calculate D2E/DX2 analytically  !
 ! A239  A(25,36,38)           140.0169         calculate D2E/DX2 analytically  !
 ! A240  A(25,36,39)           137.467          calculate D2E/DX2 analytically  !
 ! A241  A(35,36,37)           115.9537         calculate D2E/DX2 analytically  !
 ! A242  A(35,36,38)           115.7184         calculate D2E/DX2 analytically  !
 ! A243  A(35,36,39)            97.5632         calculate D2E/DX2 analytically  !
 ! A244  A(37,36,38)            88.6887         calculate D2E/DX2 analytically  !
 ! A245  A(13,37,36)            78.7021         calculate D2E/DX2 analytically  !
 ! A246  A(13,37,39)            79.4686         calculate D2E/DX2 analytically  !
 ! A247  A(13,38,36)            78.5243         calculate D2E/DX2 analytically  !
 ! A248  A(13,38,39)            79.6436         calculate D2E/DX2 analytically  !
 ! A249  A(36,39,40)           151.1563         calculate D2E/DX2 analytically  !
 ! A250  A(36,39,41)            95.7448         calculate D2E/DX2 analytically  !
 ! A251  A(36,39,62)           145.5593         calculate D2E/DX2 analytically  !
 ! A252  A(37,39,38)            91.5746         calculate D2E/DX2 analytically  !
 ! A253  A(37,39,40)            98.0264         calculate D2E/DX2 analytically  !
 ! A254  A(37,39,41)           115.4354         calculate D2E/DX2 analytically  !
 ! A255  A(37,39,62)           134.7646         calculate D2E/DX2 analytically  !
 ! A256  A(38,39,40)           132.9909         calculate D2E/DX2 analytically  !
 ! A257  A(38,39,41)           114.7397         calculate D2E/DX2 analytically  !
 ! A258  A(38,39,62)            92.1212         calculate D2E/DX2 analytically  !
 ! A259  A(40,39,41)           102.219          calculate D2E/DX2 analytically  !
 ! A260  A(41,39,62)           103.6009         calculate D2E/DX2 analytically  !
 ! A261  A(18,40,39)            87.2554         calculate D2E/DX2 analytically  !
 ! A262  A(18,42,43)            86.4498         calculate D2E/DX2 analytically  !
 ! A263  A(18,42,44)            97.8532         calculate D2E/DX2 analytically  !
 ! A264  A(18,42,61)           146.6209         calculate D2E/DX2 analytically  !
 ! A265  A(19,42,20)            87.8213         calculate D2E/DX2 analytically  !
 ! A266  A(19,42,43)           139.237          calculate D2E/DX2 analytically  !
 ! A267  A(19,42,44)            92.4557         calculate D2E/DX2 analytically  !
 ! A268  A(19,42,61)           106.5386         calculate D2E/DX2 analytically  !
 ! A269  A(20,42,43)            76.1447         calculate D2E/DX2 analytically  !
 ! A270  A(20,42,44)           137.1011         calculate D2E/DX2 analytically  !
 ! A271  A(20,42,61)           108.8069         calculate D2E/DX2 analytically  !
 ! A272  A(43,42,44)            76.0462         calculate D2E/DX2 analytically  !
 ! A273  A(43,42,61)           114.0565         calculate D2E/DX2 analytically  !
 ! A274  A(44,42,61)           112.1272         calculate D2E/DX2 analytically  !
 ! A275  A(6,43,42)             80.7382         calculate D2E/DX2 analytically  !
 ! A276  A(6,43,45)             83.3507         calculate D2E/DX2 analytically  !
 ! A277  A(42,43,45)            90.6196         calculate D2E/DX2 analytically  !
 ! A278  A(6,44,42)             83.5521         calculate D2E/DX2 analytically  !
 ! A279  A(6,44,45)             81.6985         calculate D2E/DX2 analytically  !
 ! A280  A(42,44,45)            92.9114         calculate D2E/DX2 analytically  !
 ! A281  A(3,45,43)             94.1033         calculate D2E/DX2 analytically  !
 ! A282  A(3,45,44)            139.1698         calculate D2E/DX2 analytically  !
 ! A283  A(3,45,46)             81.9206         calculate D2E/DX2 analytically  !
 ! A284  A(3,45,47)            111.3962         calculate D2E/DX2 analytically  !
 ! A285  A(43,45,44)            78.2985         calculate D2E/DX2 analytically  !
 ! A286  A(43,45,46)           139.6978         calculate D2E/DX2 analytically  !
 ! A287  A(43,45,47)           108.1799         calculate D2E/DX2 analytically  !
 ! A288  A(44,45,46)            79.0887         calculate D2E/DX2 analytically  !
 ! A289  A(44,45,47)           109.0589         calculate D2E/DX2 analytically  !
 ! A290  A(46,45,47)           110.574          calculate D2E/DX2 analytically  !
 ! A291  A(1,46,45)             81.2072         calculate D2E/DX2 analytically  !
 ! A292  A(1,46,48)             84.0529         calculate D2E/DX2 analytically  !
 ! A293  A(45,46,48)            92.0476         calculate D2E/DX2 analytically  !
 ! A294  A(3,48,21)             89.6533         calculate D2E/DX2 analytically  !
 ! A295  A(3,48,23)             78.8854         calculate D2E/DX2 analytically  !
 ! A296  A(3,48,46)             73.35           calculate D2E/DX2 analytically  !
 ! A297  A(3,48,49)            139.6633         calculate D2E/DX2 analytically  !
 ! A298  A(3,48,50)            109.9318         calculate D2E/DX2 analytically  !
 ! A299  A(21,48,46)            94.1523         calculate D2E/DX2 analytically  !
 ! A300  A(21,48,50)           152.6443         calculate D2E/DX2 analytically  !
 ! A301  A(23,48,46)           138.0147         calculate D2E/DX2 analytically  !
 ! A302  A(23,48,49)            96.1424         calculate D2E/DX2 analytically  !
 ! A303  A(23,48,50)           109.3916         calculate D2E/DX2 analytically  !
 ! A304  A(46,48,49)            85.6946         calculate D2E/DX2 analytically  !
 ! A305  A(46,48,50)           109.3822         calculate D2E/DX2 analytically  !
 ! A306  A(49,48,50)           109.429          calculate D2E/DX2 analytically  !
 ! A307  A(14,51,22)           103.0262         calculate D2E/DX2 analytically  !
 ! A308  A(14,51,52)            79.3447         calculate D2E/DX2 analytically  !
 ! A309  A(14,51,60)           115.1605         calculate D2E/DX2 analytically  !
 ! A310  A(14,51,63)           137.0609         calculate D2E/DX2 analytically  !
 ! A311  A(22,51,52)           134.4159         calculate D2E/DX2 analytically  !
 ! A312  A(22,51,60)           105.5444         calculate D2E/DX2 analytically  !
 ! A313  A(22,51,63)            65.7557         calculate D2E/DX2 analytically  !
 ! A314  A(52,51,60)           114.5075         calculate D2E/DX2 analytically  !
 ! A315  A(52,51,63)            81.6041         calculate D2E/DX2 analytically  !
 ! A316  A(60,51,63)           107.7391         calculate D2E/DX2 analytically  !
 ! A317  A(12,52,51)            82.3733         calculate D2E/DX2 analytically  !
 ! A318  A(12,52,54)            81.6197         calculate D2E/DX2 analytically  !
 ! A319  A(51,52,54)            88.0718         calculate D2E/DX2 analytically  !
 ! A320  A(14,54,52)            78.0991         calculate D2E/DX2 analytically  !
 ! A321  A(14,54,53)           104.6037         calculate D2E/DX2 analytically  !
 ! A322  A(14,54,55)           139.7528         calculate D2E/DX2 analytically  !
 ! A323  A(14,54,56)            83.0236         calculate D2E/DX2 analytically  !
 ! A324  A(14,54,57)           133.4192         calculate D2E/DX2 analytically  !
 ! A325  A(52,54,53)           101.7553         calculate D2E/DX2 analytically  !
 ! A326  A(52,54,55)            87.4064         calculate D2E/DX2 analytically  !
 ! A327  A(52,54,56)           144.6648         calculate D2E/DX2 analytically  !
 ! A328  A(52,54,57)           138.2298         calculate D2E/DX2 analytically  !
 ! A329  A(53,54,55)           115.1026         calculate D2E/DX2 analytically  !
 ! A330  A(53,54,56)           111.8358         calculate D2E/DX2 analytically  !
 ! A331  A(53,54,57)            95.5383         calculate D2E/DX2 analytically  !
 ! A332  A(55,54,56)            88.0863         calculate D2E/DX2 analytically  !
 ! A333  A(27,55,54)            77.7113         calculate D2E/DX2 analytically  !
 ! A334  A(27,55,57)            80.1979         calculate D2E/DX2 analytically  !
 ! A335  A(27,56,54)            76.7875         calculate D2E/DX2 analytically  !
 ! A336  A(27,56,57)            79.5716         calculate D2E/DX2 analytically  !
 ! A337  A(31,57,54)           157.8574         calculate D2E/DX2 analytically  !
 ! A338  A(31,57,55)           124.3805         calculate D2E/DX2 analytically  !
 ! A339  A(31,57,56)           107.8995         calculate D2E/DX2 analytically  !
 ! A340  A(31,57,58)           105.2125         calculate D2E/DX2 analytically  !
 ! A341  A(54,57,58)            94.3094         calculate D2E/DX2 analytically  !
 ! A342  A(55,57,56)            92.2934         calculate D2E/DX2 analytically  !
 ! A343  A(55,57,58)           113.2648         calculate D2E/DX2 analytically  !
 ! A344  A(56,57,58)           113.2834         calculate D2E/DX2 analytically  !
 ! A345  A(18,62,39)            87.5898         calculate D2E/DX2 analytically  !
 ! A346  A(21,63,51)            85.0503         calculate D2E/DX2 analytically  !
 ! D1    D(3,1,2,12)           177.7033         calculate D2E/DX2 analytically  !
 ! D2    D(3,1,2,21)            94.6242         calculate D2E/DX2 analytically  !
 ! D3    D(4,1,2,12)           -27.402          calculate D2E/DX2 analytically  !
 ! D4    D(4,1,2,21)          -110.4811         calculate D2E/DX2 analytically  !
 ! D5    D(5,1,2,12)            40.6442         calculate D2E/DX2 analytically  !
 ! D6    D(5,1,2,21)           -42.4349         calculate D2E/DX2 analytically  !
 ! D7    D(8,1,2,12)           -96.616          calculate D2E/DX2 analytically  !
 ! D8    D(8,1,2,21)          -179.695          calculate D2E/DX2 analytically  !
 ! D9    D(46,1,2,12)          114.3391         calculate D2E/DX2 analytically  !
 ! D10   D(46,1,2,21)           31.26           calculate D2E/DX2 analytically  !
 ! D11   D(2,1,3,45)           176.8109         calculate D2E/DX2 analytically  !
 ! D12   D(2,1,3,48)           -92.5808         calculate D2E/DX2 analytically  !
 ! D13   D(4,1,3,45)            21.7427         calculate D2E/DX2 analytically  !
 ! D14   D(4,1,3,48)           112.351          calculate D2E/DX2 analytically  !
 ! D15   D(5,1,3,45)          -112.7147         calculate D2E/DX2 analytically  !
 ! D16   D(5,1,3,48)           -22.1064         calculate D2E/DX2 analytically  !
 ! D17   D(8,1,3,45)            93.0969         calculate D2E/DX2 analytically  !
 ! D18   D(8,1,3,48)          -176.2948         calculate D2E/DX2 analytically  !
 ! D19   D(46,1,3,45)          -43.8753         calculate D2E/DX2 analytically  !
 ! D20   D(46,1,3,48)           46.733          calculate D2E/DX2 analytically  !
 ! D21   D(2,1,4,6)           -111.1022         calculate D2E/DX2 analytically  !
 ! D22   D(2,1,4,9)            -27.7677         calculate D2E/DX2 analytically  !
 ! D23   D(3,1,4,6)             32.1852         calculate D2E/DX2 analytically  !
 ! D24   D(3,1,4,9)            115.5198         calculate D2E/DX2 analytically  !
 ! D25   D(5,1,4,6)           -178.785          calculate D2E/DX2 analytically  !
 ! D26   D(5,1,4,9)            -95.4504         calculate D2E/DX2 analytically  !
 ! D27   D(8,1,4,6)            -40.8892         calculate D2E/DX2 analytically  !
 ! D28   D(8,1,4,9)             42.4454         calculate D2E/DX2 analytically  !
 ! D29   D(46,1,4,6)            95.092          calculate D2E/DX2 analytically  !
 ! D30   D(46,1,4,9)           178.4266         calculate D2E/DX2 analytically  !
 ! D31   D(2,1,5,12)           -40.8365         calculate D2E/DX2 analytically  !
 ! D32   D(2,1,5,21)            42.9724         calculate D2E/DX2 analytically  !
 ! D33   D(3,1,5,12)          -112.4954         calculate D2E/DX2 analytically  !
 ! D34   D(3,1,5,21)           -28.6866         calculate D2E/DX2 analytically  !
 ! D35   D(4,1,5,12)            98.094          calculate D2E/DX2 analytically  !
 ! D36   D(4,1,5,21)          -178.0972         calculate D2E/DX2 analytically  !
 ! D37   D(8,1,5,12)            30.0499         calculate D2E/DX2 analytically  !
 ! D38   D(8,1,5,21)           113.8587         calculate D2E/DX2 analytically  !
 ! D39   D(46,1,5,12)         -177.8285         calculate D2E/DX2 analytically  !
 ! D40   D(46,1,5,21)          -94.0197         calculate D2E/DX2 analytically  !
 ! D41   D(2,1,8,6)            179.1356         calculate D2E/DX2 analytically  !
 ! D42   D(2,1,8,9)             96.1669         calculate D2E/DX2 analytically  !
 ! D43   D(3,1,8,6)            -96.5927         calculate D2E/DX2 analytically  !
 ! D44   D(3,1,8,9)           -179.5614         calculate D2E/DX2 analytically  !
 ! D45   D(4,1,8,6)             40.7563         calculate D2E/DX2 analytically  !
 ! D46   D(4,1,8,9)            -42.2124         calculate D2E/DX2 analytically  !
 ! D47   D(5,1,8,6)            109.2255         calculate D2E/DX2 analytically  !
 ! D48   D(5,1,8,9)             26.2568         calculate D2E/DX2 analytically  !
 ! D49   D(46,1,8,6)           -30.9257         calculate D2E/DX2 analytically  !
 ! D50   D(46,1,8,9)          -113.8944         calculate D2E/DX2 analytically  !
 ! D51   D(2,1,46,45)          107.9594         calculate D2E/DX2 analytically  !
 ! D52   D(2,1,46,48)           14.9521         calculate D2E/DX2 analytically  !
 ! D53   D(3,1,46,45)           41.7556         calculate D2E/DX2 analytically  !
 ! D54   D(3,1,46,48)          -51.2517         calculate D2E/DX2 analytically  !
 ! D55   D(4,1,46,45)          -97.945          calculate D2E/DX2 analytically  !
 ! D56   D(4,1,46,48)          169.0477         calculate D2E/DX2 analytically  !
 ! D57   D(5,1,46,45)          179.8723         calculate D2E/DX2 analytically  !
 ! D58   D(5,1,46,48)           86.865          calculate D2E/DX2 analytically  !
 ! D59   D(8,1,46,45)          -27.4248         calculate D2E/DX2 analytically  !
 ! D60   D(8,1,46,48)         -120.4321         calculate D2E/DX2 analytically  !
 ! D61   D(1,2,12,5)           -40.8426         calculate D2E/DX2 analytically  !
 ! D62   D(1,2,12,11)           25.9868         calculate D2E/DX2 analytically  !
 ! D63   D(1,2,12,14)          178.1436         calculate D2E/DX2 analytically  !
 ! D64   D(1,2,12,15)           96.4781         calculate D2E/DX2 analytically  !
 ! D65   D(1,2,12,52)         -114.4036         calculate D2E/DX2 analytically  !
 ! D66   D(21,2,12,5)           40.3713         calculate D2E/DX2 analytically  !
 ! D67   D(21,2,12,11)         107.2007         calculate D2E/DX2 analytically  !
 ! D68   D(21,2,12,14)        -100.6425         calculate D2E/DX2 analytically  !
 ! D69   D(21,2,12,15)         177.692          calculate D2E/DX2 analytically  !
 ! D70   D(21,2,12,52)         -33.1897         calculate D2E/DX2 analytically  !
 ! D71   D(1,2,21,5)            43.2782         calculate D2E/DX2 analytically  !
 ! D72   D(1,2,21,22)         -178.7067         calculate D2E/DX2 analytically  !
 ! D73   D(1,2,21,23)          -96.9321         calculate D2E/DX2 analytically  !
 ! D74   D(1,2,21,48)          -50.0712         calculate D2E/DX2 analytically  !
 ! D75   D(1,2,21,49)          -23.8891         calculate D2E/DX2 analytically  !
 ! D76   D(1,2,21,63)          130.1856         calculate D2E/DX2 analytically  !
 ! D77   D(12,2,21,5)          -40.9541         calculate D2E/DX2 analytically  !
 ! D78   D(12,2,21,22)          97.061          calculate D2E/DX2 analytically  !
 ! D79   D(12,2,21,23)         178.8356         calculate D2E/DX2 analytically  !
 ! D80   D(12,2,21,48)        -134.3034         calculate D2E/DX2 analytically  !
 ! D81   D(12,2,21,49)        -108.1214         calculate D2E/DX2 analytically  !
 ! D82   D(12,2,21,63)          45.9533         calculate D2E/DX2 analytically  !
 ! D83   D(1,3,45,43)          -94.7175         calculate D2E/DX2 analytically  !
 ! D84   D(1,3,45,44)          -17.8952         calculate D2E/DX2 analytically  !
 ! D85   D(1,3,45,46)           44.9309         calculate D2E/DX2 analytically  !
 ! D86   D(1,3,45,47)          153.9324         calculate D2E/DX2 analytically  !
 ! D87   D(48,3,45,43)        -174.6398         calculate D2E/DX2 analytically  !
 ! D88   D(48,3,45,44)         -97.8175         calculate D2E/DX2 analytically  !
 ! D89   D(48,3,45,46)         -34.9914         calculate D2E/DX2 analytically  !
 ! D90   D(48,3,45,47)          74.0101         calculate D2E/DX2 analytically  !
 ! D91   D(1,3,48,21)           46.3372         calculate D2E/DX2 analytically  !
 ! D92   D(1,3,48,23)          100.0483         calculate D2E/DX2 analytically  !
 ! D93   D(1,3,48,46)          -48.1012         calculate D2E/DX2 analytically  !
 ! D94   D(1,3,48,49)           13.6537         calculate D2E/DX2 analytically  !
 ! D95   D(1,3,48,50)         -153.1722         calculate D2E/DX2 analytically  !
 ! D96   D(45,3,48,21)         129.5559         calculate D2E/DX2 analytically  !
 ! D97   D(45,3,48,23)        -176.733          calculate D2E/DX2 analytically  !
 ! D98   D(45,3,48,46)          35.1174         calculate D2E/DX2 analytically  !
 ! D99   D(45,3,48,49)          96.8724         calculate D2E/DX2 analytically  !
 ! D100  D(45,3,48,50)         -69.9535         calculate D2E/DX2 analytically  !
 ! D101  D(1,4,6,7)            179.0745         calculate D2E/DX2 analytically  !
 ! D102  D(1,4,6,8)             40.6823         calculate D2E/DX2 analytically  !
 ! D103  D(1,4,6,16)           108.5936         calculate D2E/DX2 analytically  !
 ! D104  D(1,4,6,18)           179.1894         calculate D2E/DX2 analytically  !
 ! D105  D(1,4,6,43)           -35.87           calculate D2E/DX2 analytically  !
 ! D106  D(1,4,6,44)           -94.0798         calculate D2E/DX2 analytically  !
 ! D107  D(9,4,6,7)             95.8495         calculate D2E/DX2 analytically  !
 ! D108  D(9,4,6,8)            -42.5427         calculate D2E/DX2 analytically  !
 ! D109  D(9,4,6,16)            25.3686         calculate D2E/DX2 analytically  !
 ! D110  D(9,4,6,18)            95.9644         calculate D2E/DX2 analytically  !
 ! D111  D(9,4,6,43)          -119.095          calculate D2E/DX2 analytically  !
 ! D112  D(9,4,6,44)          -177.3047         calculate D2E/DX2 analytically  !
 ! D113  D(1,4,9,8)            -41.9468         calculate D2E/DX2 analytically  !
 ! D114  D(1,4,9,10)          -179.3263         calculate D2E/DX2 analytically  !
 ! D115  D(1,4,9,11)            95.6137         calculate D2E/DX2 analytically  !
 ! D116  D(1,4,9,15)            29.1224         calculate D2E/DX2 analytically  !
 ! D117  D(1,4,9,26)          -111.4709         calculate D2E/DX2 analytically  !
 ! D118  D(6,4,9,8)             42.2595         calculate D2E/DX2 analytically  !
 ! D119  D(6,4,9,10)           -95.12           calculate D2E/DX2 analytically  !
 ! D120  D(6,4,9,11)           179.82           calculate D2E/DX2 analytically  !
 ! D121  D(6,4,9,15)           113.3287         calculate D2E/DX2 analytically  !
 ! D122  D(6,4,9,26)           -27.2646         calculate D2E/DX2 analytically  !
 ! D123  D(1,5,12,2)            40.8758         calculate D2E/DX2 analytically  !
 ! D124  D(1,5,12,11)          -98.0254         calculate D2E/DX2 analytically  !
 ! D125  D(1,5,12,14)          113.1245         calculate D2E/DX2 analytically  !
 ! D126  D(1,5,12,15)          -31.6441         calculate D2E/DX2 analytically  !
 ! D127  D(1,5,12,52)          172.7427         calculate D2E/DX2 analytically  !
 ! D128  D(21,5,12,2)          -40.8667         calculate D2E/DX2 analytically  !
 ! D129  D(21,5,12,11)        -179.7679         calculate D2E/DX2 analytically  !
 ! D130  D(21,5,12,14)          31.382          calculate D2E/DX2 analytically  !
 ! D131  D(21,5,12,15)        -113.3866         calculate D2E/DX2 analytically  !
 ! D132  D(21,5,12,52)          91.0002         calculate D2E/DX2 analytically  !
 ! D133  D(1,5,21,2)           -43.2492         calculate D2E/DX2 analytically  !
 ! D134  D(1,5,21,22)         -122.7329         calculate D2E/DX2 analytically  !
 ! D135  D(1,5,21,23)           29.3609         calculate D2E/DX2 analytically  !
 ! D136  D(1,5,21,48)           54.345          calculate D2E/DX2 analytically  !
 ! D137  D(1,5,21,49)           99.3707         calculate D2E/DX2 analytically  !
 ! D138  D(1,5,21,63)         -179.2266         calculate D2E/DX2 analytically  !
 ! D139  D(12,5,21,2)           41.0841         calculate D2E/DX2 analytically  !
 ! D140  D(12,5,21,22)         -38.3996         calculate D2E/DX2 analytically  !
 ! D141  D(12,5,21,23)         113.6943         calculate D2E/DX2 analytically  !
 ! D142  D(12,5,21,48)         138.6784         calculate D2E/DX2 analytically  !
 ! D143  D(12,5,21,49)        -176.2959         calculate D2E/DX2 analytically  !
 ! D144  D(12,5,21,63)         -94.8932         calculate D2E/DX2 analytically  !
 ! D145  D(4,6,7,13)           -97.0918         calculate D2E/DX2 analytically  !
 ! D146  D(8,6,7,13)           -27.4071         calculate D2E/DX2 analytically  !
 ! D147  D(16,6,7,13)           40.7008         calculate D2E/DX2 analytically  !
 ! D148  D(43,6,7,13)          114.1588         calculate D2E/DX2 analytically  !
 ! D149  D(44,6,7,13)         -179.4812         calculate D2E/DX2 analytically  !
 ! D150  D(4,6,8,1)            -40.9888         calculate D2E/DX2 analytically  !
 ! D151  D(4,6,8,9)             42.3625         calculate D2E/DX2 analytically  !
 ! D152  D(7,6,8,1)           -111.8302         calculate D2E/DX2 analytically  !
 ! D153  D(7,6,8,9)            -28.479          calculate D2E/DX2 analytically  !
 ! D154  D(16,6,8,1)          -179.7281         calculate D2E/DX2 analytically  !
 ! D155  D(16,6,8,9)           -96.3768         calculate D2E/DX2 analytically  !
 ! D156  D(18,6,8,1)           178.5639         calculate D2E/DX2 analytically  !
 ! D157  D(18,6,8,9)           -98.0848         calculate D2E/DX2 analytically  !
 ! D158  D(43,6,8,1)            96.5937         calculate D2E/DX2 analytically  !
 ! D159  D(43,6,8,9)           179.945          calculate D2E/DX2 analytically  !
 ! D160  D(44,6,8,1)            29.417          calculate D2E/DX2 analytically  !
 ! D161  D(44,6,8,9)           112.7683         calculate D2E/DX2 analytically  !
 ! D162  D(4,6,16,13)           31.0207         calculate D2E/DX2 analytically  !
 ! D163  D(7,6,16,13)          -40.4835         calculate D2E/DX2 analytically  !
 ! D164  D(8,6,16,13)           98.5723         calculate D2E/DX2 analytically  !
 ! D165  D(43,6,16,13)        -172.8976         calculate D2E/DX2 analytically  !
 ! D166  D(44,6,16,13)        -114.2658         calculate D2E/DX2 analytically  !
 ! D167  D(4,6,18,19)           73.9828         calculate D2E/DX2 analytically  !
 ! D168  D(4,6,18,20)          157.1254         calculate D2E/DX2 analytically  !
 ! D169  D(4,6,18,40)           -7.3129         calculate D2E/DX2 analytically  !
 ! D170  D(4,6,18,42)          112.3033         calculate D2E/DX2 analytically  !
 ! D171  D(4,6,18,62)         -111.6786         calculate D2E/DX2 analytically  !
 ! D172  D(8,6,18,19)         -165.4155         calculate D2E/DX2 analytically  !
 ! D173  D(8,6,18,20)          -82.2729         calculate D2E/DX2 analytically  !
 ! D174  D(8,6,18,40)          113.2888         calculate D2E/DX2 analytically  !
 ! D175  D(8,6,18,42)         -127.095          calculate D2E/DX2 analytically  !
 ! D176  D(8,6,18,62)            8.9231         calculate D2E/DX2 analytically  !
 ! D177  D(43,6,18,19)         -82.4843         calculate D2E/DX2 analytically  !
 ! D178  D(43,6,18,20)           0.6583         calculate D2E/DX2 analytically  !
 ! D179  D(43,6,18,40)        -163.78           calculate D2E/DX2 analytically  !
 ! D180  D(43,6,18,42)         -44.1638         calculate D2E/DX2 analytically  !
 ! D181  D(43,6,18,62)          91.8543         calculate D2E/DX2 analytically  !
 ! D182  D(44,6,18,19)          -7.9551         calculate D2E/DX2 analytically  !
 ! D183  D(44,6,18,20)          75.1875         calculate D2E/DX2 analytically  !
 ! D184  D(44,6,18,40)         -89.2508         calculate D2E/DX2 analytically  !
 ! D185  D(44,6,18,42)          30.3655         calculate D2E/DX2 analytically  !
 ! D186  D(44,6,18,62)         166.3835         calculate D2E/DX2 analytically  !
 ! D187  D(4,6,43,42)         -106.2726         calculate D2E/DX2 analytically  !
 ! D188  D(4,6,43,45)          -14.5511         calculate D2E/DX2 analytically  !
 ! D189  D(7,6,43,42)           25.6436         calculate D2E/DX2 analytically  !
 ! D190  D(7,6,43,45)          117.3651         calculate D2E/DX2 analytically  !
 ! D191  D(8,6,43,42)          179.8777         calculate D2E/DX2 analytically  !
 ! D192  D(8,6,43,45)          -88.4008         calculate D2E/DX2 analytically  !
 ! D193  D(16,6,43,42)          98.0559         calculate D2E/DX2 analytically  !
 ! D194  D(16,6,43,45)        -170.2226         calculate D2E/DX2 analytically  !
 ! D195  D(18,6,43,42)          48.8522         calculate D2E/DX2 analytically  !
 ! D196  D(18,6,43,45)         140.5736         calculate D2E/DX2 analytically  !
 ! D197  D(44,6,43,42)         -45.5768         calculate D2E/DX2 analytically  !
 ! D198  D(44,6,43,45)          46.1446         calculate D2E/DX2 analytically  !
 ! D199  D(4,6,44,42)         -168.47           calculate D2E/DX2 analytically  !
 ! D200  D(4,6,44,45)           97.6224         calculate D2E/DX2 analytically  !
 ! D201  D(7,6,44,42)          -84.3084         calculate D2E/DX2 analytically  !
 ! D202  D(7,6,44,45)         -178.2159         calculate D2E/DX2 analytically  !
 ! D203  D(8,6,44,42)          121.694          calculate D2E/DX2 analytically  !
 ! D204  D(8,6,44,45)           27.7864         calculate D2E/DX2 analytically  !
 ! D205  D(16,6,44,42)         -12.3544         calculate D2E/DX2 analytically  !
 ! D206  D(16,6,44,45)        -106.2619         calculate D2E/DX2 analytically  !
 ! D207  D(18,6,44,42)         -35.3467         calculate D2E/DX2 analytically  !
 ! D208  D(18,6,44,45)        -129.2542         calculate D2E/DX2 analytically  !
 ! D209  D(43,6,44,42)          49.1325         calculate D2E/DX2 analytically  !
 ! D210  D(43,6,44,45)         -44.7751         calculate D2E/DX2 analytically  !
 ! D211  D(6,7,13,10)           96.1631         calculate D2E/DX2 analytically  !
 ! D212  D(6,7,13,16)          -40.7398         calculate D2E/DX2 analytically  !
 ! D213  D(6,7,13,26)           28.3539         calculate D2E/DX2 analytically  !
 ! D214  D(6,7,13,37)          179.8854         calculate D2E/DX2 analytically  !
 ! D215  D(6,7,13,38)         -110.9743         calculate D2E/DX2 analytically  !
 ! D216  D(18,7,13,10)         177.1926         calculate D2E/DX2 analytically  !
 ! D217  D(18,7,13,16)          40.2897         calculate D2E/DX2 analytically  !
 ! D218  D(18,7,13,26)         109.3834         calculate D2E/DX2 analytically  !
 ! D219  D(18,7,13,37)         -99.0851         calculate D2E/DX2 analytically  !
 ! D220  D(18,7,13,38)         -29.9448         calculate D2E/DX2 analytically  !
 ! D221  D(13,7,18,16)         -41.0237         calculate D2E/DX2 analytically  !
 ! D222  D(13,7,18,19)         174.295          calculate D2E/DX2 analytically  !
 ! D223  D(13,7,18,20)        -120.2013         calculate D2E/DX2 analytically  !
 ! D224  D(13,7,18,40)          92.2608         calculate D2E/DX2 analytically  !
 ! D225  D(13,7,18,42)        -140.9733         calculate D2E/DX2 analytically  !
 ! D226  D(13,7,18,62)          48.5405         calculate D2E/DX2 analytically  !
 ! D227  D(1,8,9,4)             42.2766         calculate D2E/DX2 analytically  !
 ! D228  D(1,8,9,10)           111.2699         calculate D2E/DX2 analytically  !
 ! D229  D(1,8,9,11)           -27.1163         calculate D2E/DX2 analytically  !
 ! D230  D(1,8,9,15)           -96.0475         calculate D2E/DX2 analytically  !
 ! D231  D(1,8,9,26)          -179.3538         calculate D2E/DX2 analytically  !
 ! D232  D(6,8,9,4)            -42.1826         calculate D2E/DX2 analytically  !
 ! D233  D(6,8,9,10)            26.8107         calculate D2E/DX2 analytically  !
 ! D234  D(6,8,9,11)          -111.5755         calculate D2E/DX2 analytically  !
 ! D235  D(6,8,9,15)           179.4933         calculate D2E/DX2 analytically  !
 ! D236  D(6,8,9,26)            96.187          calculate D2E/DX2 analytically  !
 ! D237  D(4,9,10,13)           97.1661         calculate D2E/DX2 analytically  !
 ! D238  D(4,9,10,24)         -179.5568         calculate D2E/DX2 analytically  !
 ! D239  D(8,9,10,13)           29.0625         calculate D2E/DX2 analytically  !
 ! D240  D(8,9,10,24)          112.3396         calculate D2E/DX2 analytically  !
 ! D241  D(11,9,10,13)        -179.451          calculate D2E/DX2 analytically  !
 ! D242  D(11,9,10,24)         -96.1739         calculate D2E/DX2 analytically  !
 ! D243  D(15,9,10,13)        -110.8562         calculate D2E/DX2 analytically  !
 ! D244  D(15,9,10,24)         -27.5791         calculate D2E/DX2 analytically  !
 ! D245  D(26,9,10,13)         -41.4216         calculate D2E/DX2 analytically  !
 ! D246  D(26,9,10,24)          41.8555         calculate D2E/DX2 analytically  !
 ! D247  D(4,9,11,12)          -97.2685         calculate D2E/DX2 analytically  !
 ! D248  D(4,9,11,27)          178.667          calculate D2E/DX2 analytically  !
 ! D249  D(8,9,11,12)          -28.9098         calculate D2E/DX2 analytically  !
 ! D250  D(8,9,11,27)         -112.9744         calculate D2E/DX2 analytically  !
 ! D251  D(10,9,11,12)         179.7667         calculate D2E/DX2 analytically  !
 ! D252  D(10,9,11,27)          95.7021         calculate D2E/DX2 analytically  !
 ! D253  D(15,9,11,12)          41.9844         calculate D2E/DX2 analytically  !
 ! D254  D(15,9,11,27)         -42.0801         calculate D2E/DX2 analytically  !
 ! D255  D(26,9,11,12)         109.8945         calculate D2E/DX2 analytically  !
 ! D256  D(26,9,11,27)          25.8299         calculate D2E/DX2 analytically  !
 ! D257  D(4,9,15,12)           25.725          calculate D2E/DX2 analytically  !
 ! D258  D(4,9,15,27)          109.4824         calculate D2E/DX2 analytically  !
 ! D259  D(8,9,15,12)           95.1819         calculate D2E/DX2 analytically  !
 ! D260  D(8,9,15,27)          178.9393         calculate D2E/DX2 analytically  !
 ! D261  D(10,9,15,12)        -112.5393         calculate D2E/DX2 analytically  !
 ! D262  D(10,9,15,27)         -28.782          calculate D2E/DX2 analytically  !
 ! D263  D(11,9,15,12)         -42.0444         calculate D2E/DX2 analytically  !
 ! D264  D(11,9,15,27)          41.713          calculate D2E/DX2 analytically  !
 ! D265  D(26,9,15,12)         178.9445         calculate D2E/DX2 analytically  !
 ! D266  D(26,9,15,27)         -97.2982         calculate D2E/DX2 analytically  !
 ! D267  D(4,9,26,13)          -27.5346         calculate D2E/DX2 analytically  !
 ! D268  D(4,9,26,24)         -110.2479         calculate D2E/DX2 analytically  !
 ! D269  D(8,9,26,13)          -95.8857         calculate D2E/DX2 analytically  !
 ! D270  D(8,9,26,24)         -178.599          calculate D2E/DX2 analytically  !
 ! D271  D(10,9,26,13)          41.0784         calculate D2E/DX2 analytically  !
 ! D272  D(10,9,26,24)         -41.6349         calculate D2E/DX2 analytically  !
 ! D273  D(11,9,26,13)         112.4347         calculate D2E/DX2 analytically  !
 ! D274  D(11,9,26,24)          29.7215         calculate D2E/DX2 analytically  !
 ! D275  D(15,9,26,13)         179.0572         calculate D2E/DX2 analytically  !
 ! D276  D(15,9,26,24)          96.3439         calculate D2E/DX2 analytically  !
 ! D277  D(9,10,13,7)          -97.2984         calculate D2E/DX2 analytically  !
 ! D278  D(9,10,13,16)         -27.519          calculate D2E/DX2 analytically  !
 ! D279  D(9,10,13,26)          41.3022         calculate D2E/DX2 analytically  !
 ! D280  D(9,10,13,37)         179.6666         calculate D2E/DX2 analytically  !
 ! D281  D(9,10,13,38)         109.4679         calculate D2E/DX2 analytically  !
 ! D282  D(24,10,13,7)        -179.9568         calculate D2E/DX2 analytically  !
 ! D283  D(24,10,13,16)       -110.1774         calculate D2E/DX2 analytically  !
 ! D284  D(24,10,13,26)        -41.3562         calculate D2E/DX2 analytically  !
 ! D285  D(24,10,13,37)         97.0082         calculate D2E/DX2 analytically  !
 ! D286  D(24,10,13,38)         26.8095         calculate D2E/DX2 analytically  !
 ! D287  D(9,10,24,17)        -113.6254         calculate D2E/DX2 analytically  !
 ! D288  D(9,10,24,25)         179.8951         calculate D2E/DX2 analytically  !
 ! D289  D(9,10,24,26)         -42.2805         calculate D2E/DX2 analytically  !
 ! D290  D(9,10,24,28)          95.7812         calculate D2E/DX2 analytically  !
 ! D291  D(9,10,24,29)          30.5867         calculate D2E/DX2 analytically  !
 ! D292  D(13,10,24,17)        -29.4499         calculate D2E/DX2 analytically  !
 ! D293  D(13,10,24,25)        -95.9294         calculate D2E/DX2 analytically  !
 ! D294  D(13,10,24,26)         41.895          calculate D2E/DX2 analytically  !
 ! D295  D(13,10,24,28)        179.9566         calculate D2E/DX2 analytically  !
 ! D296  D(13,10,24,29)        114.7622         calculate D2E/DX2 analytically  !
 ! D297  D(9,11,12,2)           29.416          calculate D2E/DX2 analytically  !
 ! D298  D(9,11,12,5)           96.4477         calculate D2E/DX2 analytically  !
 ! D299  D(9,11,12,14)        -111.2075         calculate D2E/DX2 analytically  !
 ! D300  D(9,11,12,15)         -42.5021         calculate D2E/DX2 analytically  !
 ! D301  D(9,11,12,52)         179.9515         calculate D2E/DX2 analytically  !
 ! D302  D(27,11,12,2)         113.6561         calculate D2E/DX2 analytically  !
 ! D303  D(27,11,12,5)        -179.3122         calculate D2E/DX2 analytically  !
 ! D304  D(27,11,12,14)        -26.9674         calculate D2E/DX2 analytically  !
 ! D305  D(27,11,12,15)         41.738          calculate D2E/DX2 analytically  !
 ! D306  D(27,11,12,52)        -95.8084         calculate D2E/DX2 analytically  !
 ! D307  D(9,11,27,15)          42.1752         calculate D2E/DX2 analytically  !
 ! D308  D(9,11,27,28)         -94.299          calculate D2E/DX2 analytically  !
 ! D309  D(9,11,27,29)         -26.686          calculate D2E/DX2 analytically  !
 ! D310  D(9,11,27,30)         -95.2942         calculate D2E/DX2 analytically  !
 ! D311  D(9,11,27,55)        -178.5083         calculate D2E/DX2 analytically  !
 ! D312  D(9,11,27,56)         114.4382         calculate D2E/DX2 analytically  !
 ! D313  D(12,11,27,15)        -41.3263         calculate D2E/DX2 analytically  !
 ! D314  D(12,11,27,28)       -177.8005         calculate D2E/DX2 analytically  !
 ! D315  D(12,11,27,29)       -110.1875         calculate D2E/DX2 analytically  !
 ! D316  D(12,11,27,30)       -178.7957         calculate D2E/DX2 analytically  !
 ! D317  D(12,11,27,55)         97.9902         calculate D2E/DX2 analytically  !
 ! D318  D(12,11,27,56)         30.9367         calculate D2E/DX2 analytically  !
 ! D319  D(2,12,14,51)          88.0418         calculate D2E/DX2 analytically  !
 ! D320  D(2,12,14,54)         179.0513         calculate D2E/DX2 analytically  !
 ! D321  D(5,12,14,51)          17.3046         calculate D2E/DX2 analytically  !
 ! D322  D(5,12,14,54)         108.3141         calculate D2E/DX2 analytically  !
 ! D323  D(11,12,14,51)       -118.6355         calculate D2E/DX2 analytically  !
 ! D324  D(11,12,14,54)        -27.626          calculate D2E/DX2 analytically  !
 ! D325  D(15,12,14,51)        172.9285         calculate D2E/DX2 analytically  !
 ! D326  D(15,12,14,54)        -96.0619         calculate D2E/DX2 analytically  !
 ! D327  D(52,12,14,51)        -44.724          calculate D2E/DX2 analytically  !
 ! D328  D(52,12,14,54)         46.2855         calculate D2E/DX2 analytically  !
 ! D329  D(2,12,15,9)          -95.1098         calculate D2E/DX2 analytically  !
 ! D330  D(2,12,15,27)        -179.005          calculate D2E/DX2 analytically  !
 ! D331  D(5,12,15,9)          -23.8386         calculate D2E/DX2 analytically  !
 ! D332  D(5,12,15,27)        -107.7339         calculate D2E/DX2 analytically  !
 ! D333  D(11,12,15,9)          42.5227         calculate D2E/DX2 analytically  !
 ! D334  D(11,12,15,27)        -41.3725         calculate D2E/DX2 analytically  !
 ! D335  D(14,12,15,9)         178.7596         calculate D2E/DX2 analytically  !
 ! D336  D(14,12,15,27)         94.8644         calculate D2E/DX2 analytically  !
 ! D337  D(52,12,15,9)         119.7981         calculate D2E/DX2 analytically  !
 ! D338  D(52,12,15,27)         35.9029         calculate D2E/DX2 analytically  !
 ! D339  D(2,12,52,51)         -28.677          calculate D2E/DX2 analytically  !
 ! D340  D(2,12,52,54)        -117.8412         calculate D2E/DX2 analytically  !
 ! D341  D(5,12,52,51)        -101.2416         calculate D2E/DX2 analytically  !
 ! D342  D(5,12,52,54)         169.5943         calculate D2E/DX2 analytically  !
 ! D343  D(11,12,52,51)        178.0614         calculate D2E/DX2 analytically  !
 ! D344  D(11,12,52,54)         88.8972         calculate D2E/DX2 analytically  !
 ! D345  D(14,12,52,51)         42.9214         calculate D2E/DX2 analytically  !
 ! D346  D(14,12,52,54)        -46.2428         calculate D2E/DX2 analytically  !
 ! D347  D(15,12,52,51)        103.7292         calculate D2E/DX2 analytically  !
 ! D348  D(15,12,52,54)         14.565          calculate D2E/DX2 analytically  !
 ! D349  D(7,13,16,6)           40.8492         calculate D2E/DX2 analytically  !
 ! D350  D(7,13,16,18)         -40.6612         calculate D2E/DX2 analytically  !
 ! D351  D(10,13,16,6)         -28.9702         calculate D2E/DX2 analytically  !
 ! D352  D(10,13,16,18)       -110.4805         calculate D2E/DX2 analytically  !
 ! D353  D(26,13,16,6)         -97.4278         calculate D2E/DX2 analytically  !
 ! D354  D(26,13,16,18)       -178.9381         calculate D2E/DX2 analytically  !
 ! D355  D(37,13,16,6)         109.9884         calculate D2E/DX2 analytically  !
 ! D356  D(37,13,16,18)         28.478          calculate D2E/DX2 analytically  !
 ! D357  D(38,13,16,6)         179.8334         calculate D2E/DX2 analytically  !
 ! D358  D(38,13,16,18)         98.3231         calculate D2E/DX2 analytically  !
 ! D359  D(7,13,26,9)           26.676          calculate D2E/DX2 analytically  !
 ! D360  D(7,13,26,24)         109.3815         calculate D2E/DX2 analytically  !
 ! D361  D(10,13,26,9)         -41.5003         calculate D2E/DX2 analytically  !
 ! D362  D(10,13,26,24)         41.2052         calculate D2E/DX2 analytically  !
 ! D363  D(16,13,26,9)          95.7473         calculate D2E/DX2 analytically  !
 ! D364  D(16,13,26,24)        178.4528         calculate D2E/DX2 analytically  !
 ! D365  D(37,13,26,9)        -111.1291         calculate D2E/DX2 analytically  !
 ! D366  D(37,13,26,24)        -28.4236         calculate D2E/DX2 analytically  !
 ! D367  D(38,13,26,9)         179.5786         calculate D2E/DX2 analytically  !
 ! D368  D(38,13,26,24)        -97.7158         calculate D2E/DX2 analytically  !
 ! D369  D(7,13,37,36)         178.9847         calculate D2E/DX2 analytically  !
 ! D370  D(7,13,37,39)         102.8893         calculate D2E/DX2 analytically  !
 ! D371  D(10,13,37,36)        -98.4414         calculate D2E/DX2 analytically  !
 ! D372  D(10,13,37,39)       -174.5367         calculate D2E/DX2 analytically  !
 ! D373  D(16,13,37,36)        110.0358         calculate D2E/DX2 analytically  !
 ! D374  D(16,13,37,39)         33.9405         calculate D2E/DX2 analytically  !
 ! D375  D(26,13,37,36)        -29.5684         calculate D2E/DX2 analytically  !
 ! D376  D(26,13,37,39)       -105.6637         calculate D2E/DX2 analytically  !
 ! D377  D(38,13,37,36)         39.779          calculate D2E/DX2 analytically  !
 ! D378  D(38,13,37,39)        -36.3164         calculate D2E/DX2 analytically  !
 ! D379  D(7,13,38,36)        -109.1127         calculate D2E/DX2 analytically  !
 ! D380  D(7,13,38,39)         -32.6491         calculate D2E/DX2 analytically  !
 ! D381  D(10,13,38,36)         30.7848         calculate D2E/DX2 analytically  !
 ! D382  D(10,13,38,39)        107.2485         calculate D2E/DX2 analytically  !
 ! D383  D(16,13,38,36)       -178.9047         calculate D2E/DX2 analytically  !
 ! D384  D(16,13,38,39)       -102.441          calculate D2E/DX2 analytically  !
 ! D385  D(26,13,38,36)         98.5405         calculate D2E/DX2 analytically  !
 ! D386  D(26,13,38,39)        175.0042         calculate D2E/DX2 analytically  !
 ! D387  D(37,13,38,36)        -39.8104         calculate D2E/DX2 analytically  !
 ! D388  D(37,13,38,39)         36.6532         calculate D2E/DX2 analytically  !
 ! D389  D(12,14,51,22)        -88.4892         calculate D2E/DX2 analytically  !
 ! D390  D(12,14,51,52)         44.9373         calculate D2E/DX2 analytically  !
 ! D391  D(12,14,51,60)        157.1447         calculate D2E/DX2 analytically  !
 ! D392  D(12,14,51,63)        -20.2099         calculate D2E/DX2 analytically  !
 ! D393  D(54,14,51,22)       -169.7973         calculate D2E/DX2 analytically  !
 ! D394  D(54,14,51,52)        -36.3708         calculate D2E/DX2 analytically  !
 ! D395  D(54,14,51,60)         75.8366         calculate D2E/DX2 analytically  !
 ! D396  D(54,14,51,63)       -101.5179         calculate D2E/DX2 analytically  !
 ! D397  D(12,14,54,52)        -47.036          calculate D2E/DX2 analytically  !
 ! D398  D(12,14,54,53)       -146.2574         calculate D2E/DX2 analytically  !
 ! D399  D(12,14,54,55)         24.2679         calculate D2E/DX2 analytically  !
 ! D400  D(12,14,54,56)        102.9278         calculate D2E/DX2 analytically  !
 ! D401  D(12,14,54,57)        101.1694         calculate D2E/DX2 analytically  !
 ! D402  D(51,14,54,52)         36.7369         calculate D2E/DX2 analytically  !
 ! D403  D(51,14,54,53)        -62.4844         calculate D2E/DX2 analytically  !
 ! D404  D(51,14,54,55)        108.0408         calculate D2E/DX2 analytically  !
 ! D405  D(51,14,54,56)       -173.2993         calculate D2E/DX2 analytically  !
 ! D406  D(51,14,54,57)       -175.0577         calculate D2E/DX2 analytically  !
 ! D407  D(9,15,27,11)         -42.246          calculate D2E/DX2 analytically  !
 ! D408  D(9,15,27,28)          25.4414         calculate D2E/DX2 analytically  !
 ! D409  D(9,15,27,29)          96.341          calculate D2E/DX2 analytically  !
 ! D410  D(9,15,27,30)          93.3839         calculate D2E/DX2 analytically  !
 ! D411  D(9,15,27,55)        -109.3706         calculate D2E/DX2 analytically  !
 ! D412  D(9,15,27,56)         178.6315         calculate D2E/DX2 analytically  !
 ! D413  D(12,15,27,11)         41.4311         calculate D2E/DX2 analytically  !
[...]
 .00010218,0.00004893,0.00000026,-0.00003156,-0.00003480,-0.00002216,0.
 00006064,0.00008469,0.00012358,-0.00014245,-0.00009614,-0.00000107,0.0
 0023779,0.00004755,-0.00007705,0.00007770,-0.06868221,-0.04528614,0.04
 630836,-0.00048199,-0.00035106,0.00098316,0.00004860,0.00298310,-0.001
 89099,-0.00111713,0.00019773,0.00089912,-0.00014130,-0.00014943,-0.000
 48301,0.00180528,0.00045537,-0.00049657,-0.00007572,0.00025894,0.00034
 102,-0.00000334,-0.00000068,-0.00002198,0.00016786,0.00003562,-0.00011
 305,0.00001518,-0.00003026,0.00011274,0.00000540,0.00000750,-0.0000026
 3,-0.00004799,0.00001591,-0.00001244,0.00005080,-0.00001177,-0.0000009
 1,-0.00000654,-0.00000107,0.00000060,-0.00000206,0.00000393,0.00000274
 ,0.00007018,-0.00002086,0.00002412,-0.00006512,0.00001158,-0.00000179,
 -0.00000223,-0.00003909,0.00005899,-0.00005178,0.00001905,-0.00002026,
 0.06956220,0.04074458,0.00037290,-0.00043148,0.00022779,-0.00010379,0.
 00003102,-0.00008772,-0.00035362,-0.00011856,-0.00033089,-0.00016754,-
 0.00009860,-0.00005904,-0.00002374,0.00009151,-0.00004310,0.00298486,0
 .00091105,0.00016487,-0.00033006,0.00033173,0.00053267,0.00017002,0.00
 015005,-0.00003013,0.00014003,0.00000835,0.00012260,-0.00005240,-0.000
 02967,0.00001310,-0.00001660,0.00001812,-0.00000431,0.00009221,-0.0000
 3645,0.00000599,0.00024428,0.00013216,-0.00006652,0.00000464,-0.000015
 37,0.00003186,-0.00001362,-0.00000991,-0.00000705,0.00017827,-0.000280
 17,0.00020192,0.00005500,-0.00001106,-0.00001130,-0.00000484,-0.000723
 59,-0.00043603,0.00511953,0.00244314,-0.00873586,-0.00102659,0.0028732
 3,0.00056069,-0.00007758,0.00009887,0.00000996,-0.00005914,-0.00000482
 ,0.00001452,-0.00007464,0.00007370,0.00006460,-0.00003738,0.00001758,-
 0.00003062,0.00003271,-0.00000055,0.00001106,-0.00004174,-0.00002078,0
 .00003555,0.00008080,-0.00004451,0.00003094,-0.00002694,0.00001272,0.0
 0002358,-0.00002107,-0.00000635,0.00000707,-0.00007688,0.00005873,-0.0
 0002554,0.00009514,-0.00004943,0.00002148,0.00006716,0.00000165,0.0000
 4346,-0.00017689,-0.00008680,0.00012266,0.00003087,-0.00001193,-0.0000
 0106,-0.00002327,0.00007849,-0.00010276,0.00000395,-0.00008788,0.00010
 012,0.00000537,0.00002515,0.00003561,-0.00001802,-0.00002388,-0.000044
 34,-0.00008673,-0.00010112,0.00025229,-0.00023585,-0.00017398,-0.00039
 144,-0.00008490,0.00011396,-0.00016184,0.10646558,0.04918331,-0.091207
 49,0.00096413,0.00064933,0.00088202,0.00199731,-0.00296201,-0.00044689
 ,0.00177077,0.00060259,-0.00167597,-0.00012139,0.00030889,0.00009518,-
 0.00318268,-0.00054324,0.00119600,0.00020006,0.00024256,-0.00028027,-0
 .00005900,-0.00001917,-0.00006757,-0.00029882,-0.00007924,0.00019998,-
 0.00005006,0.00003256,-0.00015577,0.00000237,-0.00000799,0.00001190,0.
 00008715,-0.00002895,0.00002406,-0.00009668,0.00002673,-0.00001526,0.0
 0000775,0.00000025,0.00000351,0.00000261,-0.00000665,-0.00000174,-0.00
 011992,0.00002883,-0.00002501,0.00011485,-0.00002107,0.00000433,-0.000
 00243,0.00007385,-0.00010756,0.00010750,-0.00003919,0.00004021,-0.1144
 8447,-0.05268756,0.09966418,0.00008052,-0.00003692,-0.00001461,-0.0000
 1498,-0.00000573,-0.00000466,0.00007253,-0.00002778,0.00002684,-0.0000
 4127,-0.00006226,0.00005494,-0.00002000,0.00000323,0.00000353,0.000368
 74,-0.00000491,0.00018752,-0.00069026,-0.00086398,-0.00065156,0.000062
 08,-0.00016345,0.00008413,0.00010338,0.00008005,-0.00008175,-0.0000600
 1,0.00005188,0.00004235,0.00000493,-0.00000595,0.00003659,0.00001738,-
 0.00000881,0.00001071,-0.00055811,0.00401538,0.00147347,0.00000745,0.0
 0000085,-0.00001378,-0.00002363,-0.00001007,0.00002954,-0.00200481,-0.
 00058817,-0.00373294,-0.00016337,0.00000433,-0.00031421,-0.01524325,0.
 01991832,-0.00102933,0.00100251,0.00063361,-0.00153805,-0.00083640,-0.
 00341224,0.00081653,0.00000129,0.00001694,0.00002139,0.00001315,0.0000
 0152,-0.00001308,0.00002081,0.00000411,-0.00001648,-0.00007642,-0.0000
 4194,0.00014058,-0.00005740,0.00017014,-0.00000478,0.00042562,-0.00012
 647,0.00011874,0.00000780,0.00001308,-0.00007591,-0.00000383,0.0000029
 6,0.00002080,-0.00003548,-0.00002181,0.00000545,0.00004372,-0.00003062
 ,0.00005898,-0.00004375,0.00002673,-0.00002405,-0.00004988,0.00004124,
 -0.00002635,0.00029866,-0.00002317,0.00002654,-0.00008240,-0.00002633,
 -0.00005845,-0.00001330,0.00005071,-0.00038109,0.00028215,0.00023800,0
 .00017859,-0.00236587,0.00109792,-0.00078587,-0.00573452,-0.00195295,0
 .00179707,-0.03199610,0.00756225,0.03221726,-0.00119627,-0.02536102,-0
 .02009101,0.00136174,-0.00252878,0.00022626,0.00215431,0.00065999,0.00
 086417,0.00019762,-0.00004728,0.00014310,-0.00029221,-0.00006632,0.000
 03323,-0.00015909,0.00019230,-0.00022761,0.00003291,0.00001439,0.00003
 852,-0.00006425,-0.00001595,0.00005126,-0.00002483,0.00003101,-0.00002
 001,0.00001558,-0.00000363,-0.00000555,-0.00000436,-0.00000586,0.00000
 574,-0.00002541,-0.00002532,0.00004664,0.00000905,0.00000952,0.0000003
 8,-0.00000017,0.00000077,0.00000024,-0.00000780,0.00000107,-0.00000581
 ,-0.00000412,-0.00000114,0.00000383,-0.00000536,0.00000071,0.00000864,
 0.00000287,-0.00001464,0.00002026,-0.00000863,0.00000319,0.00000076,-0
 .00001593,-0.00000167,0.00001475,0.00000916,-0.00000089,0.00000023,-0.
 00007319,0.00008951,0.00007531,0.05537980,0.00013671,-0.00001618,-0.00
 000630,-0.00005725,-0.00000395,-0.00001051,0.00004129,-0.00002552,-0.0
 0003850,-0.00002656,0.00021718,0.00015118,-0.00001865,-0.00000660,-0.0
 0000061,-0.00025145,-0.00158896,-0.00128918,0.00127951,-0.00088483,0.0
 0040296,0.00010041,0.00072465,0.00014388,0.00005623,-0.00003381,0.0001
 9406,0.00014060,0.00007433,0.00003607,-0.00000757,-0.00002921,0.000030
 36,0.00001424,-0.00000045,-0.00000683,-0.00076804,-0.00062685,-0.00177
 025,0.00001442,-0.00000454,-0.00001548,-0.00001587,0.00000039,0.000024
 03,0.00029773,0.00319304,-0.00072055,-0.00012917,0.00003595,0.00015867
 ,0.01766275,-0.05975461,0.02163010,0.00021580,-0.00017856,0.00120869,-
 0.00113297,0.00251471,0.00153230,0.00000042,0.00002416,0.00004042,0.00
 001949,0.00000293,-0.00002050,0.00001591,0.00000356,-0.00001393,0.0001
 5204,0.00004391,0.00001658,-0.00032595,0.00017663,-0.00003692,0.000034
 70,-0.00024797,-0.00023191,0.00003051,0.00003856,-0.00007157,0.0000034
 9,0.00001789,0.00001645,-0.00001798,-0.00003374,0.00005652,0.00009761,
 -0.00005613,0.00009776,-0.00005927,0.00005086,-0.00003674,-0.00011484,
 0.00004969,-0.00001593,0.00031584,-0.00000613,-0.00006990,-0.00006814,
 0.00000690,-0.00008785,0.00006955,0.00041811,-0.00006403,-0.00116966,-
 0.00015071,-0.00011151,0.00037691,0.00180696,0.00005615,-0.00147295,0.
 00211632,0.00339427,0.01065471,-0.01490183,-0.00929139,-0.02461896,-0.
 08624426,-0.06142302,-0.00211905,0.00212852,0.00165344,0.00133327,-0.0
 0173144,0.00011726,-0.00009495,0.00042029,0.00028607,-0.00064990,0.000
 49420,-0.00007029,-0.00012836,0.00015945,-0.00018888,-0.00001963,0.000
 00599,0.00007972,-0.00004051,-0.00005481,0.00001843,0.00000476,0.00004
 300,-0.00007864,0.00001479,-0.00000344,-0.00000797,-0.00003432,-0.0000
 2378,0.00003543,-0.00005393,-0.00002935,0.00004972,0.00002184,0.000013
 52,0.00000208,0.00001748,-0.00000464,0.00000674,-0.00003481,0.00000480
 ,-0.00001281,-0.00000177,-0.00000082,0.00000915,-0.00000788,0.00000074
 ,0.00000688,-0.00001182,-0.00003208,0.00003607,0.00000771,-0.00000113,
 0.00000311,-0.00000378,0.00001844,0.00000910,0.00003776,-0.00000816,0.
 00000781,-0.00031062,-0.00017293,0.00018484,0.00055941,0.15206667,-0.0
 0025856,0.00008420,0.00006603,0.00006976,0.00001805,0.00001462,-0.0000
 6275,0.00006316,-0.00008014,-0.00010970,0.00001353,-0.00004766,0.00005
 475,0.00000514,-0.00002208,-0.00042855,0.00030432,0.00043741,-0.000103
 60,0.00147309,0.00043700,0.00006227,-0.00021388,-0.00011749,-0.0000651
 7,0.00002296,0.00007693,0.00015131,0.00030512,0.00001324,0.00001163,0.
 00001469,-0.00006346,-0.00003162,-0.00000539,-0.00000470,-0.00134795,-
 0.00240177,0.00152881,-0.00002576,0.00000067,0.00003274,0.00001258,0.0
 0005135,-0.00009673,-0.00061296,0.00210073,-0.00011395,0.00038929,0.00
 026548,0.00070894,-0.00403450,0.01614071,-0.01508961,-0.00026464,-0.00
 012061,-0.00010102,0.00092140,0.00579540,-0.00737675,0.00000545,-0.000
 06196,-0.00008100,-0.00003880,0.00000128,0.00004166,-0.00007276,0.0000
 0380,0.00004988,0.00011597,0.00019109,-0.00012748,0.00014236,0.0002305
 3,0.00008462,0.00005453,0.00007761,-0.00003384,0.00000322,-0.00006682,
 0.00012293,0.00004486,0.00002258,-0.00004486,-0.00000138,0.00003020,-0
 .00005735,-0.00018052,0.00012299,-0.00023074,0.00014423,-0.00011416,0.
 00008013,0.00014740,-0.00004765,0.00004118,-0.00062899,0.00004563,0.00
 025747,0.00020858,-0.00005978,0.00014096,-0.00008594,0.00038706,0.0001
 5635,-0.00052059,-0.00203562,-0.00069906,0.00221299,-0.00203205,0.0001
 1353,-0.00004681,0.00189565,0.00324905,0.03257069,-0.00691244,-0.05208
 171,-0.01914654,-0.05985744,-0.03403282,0.00076211,0.00071978,-0.00351
 766,-0.00041094,-0.00051861,0.00002260,-0.00005543,0.00027006,-0.00015
 928,0.00009222,-0.00004839,0.00004102,0.00015925,-0.00020977,0.0000842
 9,-0.00006339,0.00003574,-0.00003846,-0.00001640,-0.00000203,-0.000017
 90,0.00011582,-0.00006211,0.00004578,-0.00003940,-0.00000047,0.0000158
 1,-0.00001502,0.00000721,0.00000411,0.00005527,0.00007720,-0.00014047,
 -0.00002988,-0.00002192,-0.00000420,0.00001203,-0.00000400,-0.00000075
 ,0.00000853,-0.00000080,0.00002234,0.00000953,0.00000233,-0.00001536,0
 .00000360,-0.00000104,-0.00001174,-0.00004227,0.00006145,-0.00008544,0
 .00004589,-0.00000802,-0.00000294,0.00004215,0.00003352,-0.00003420,-0
 .00001473,0.00000034,0.00000182,-0.00005865,-0.00010795,-0.00014945,-0
 .00975255,0.04401692,0.10674539,-0.00224433,0.00155291,-0.00014121,-0.
 00074659,0.00527954,0.00079328,0.00017985,-0.00098381,-0.00075613,-0.0
 0015467,0.00000661,0.00003779,-0.00706088,0.00594008,-0.00307926,-0.00
 012786,0.00014849,-0.00029326,-0.00009349,-0.00011706,0.00005203,-0.00
 011033,-0.00005988,-0.00022585,0.00001765,0.00003931,0.00008989,-0.000
 13058,0.00002415,0.00007515,-0.00034068,-0.00031862,0.00009919,0.00188
 594,0.00111781,-0.00095793,0.00020523,0.00013425,-0.00022086,0.0027170
 1,-0.00418477,0.00350064,-0.00014734,0.00004311,0.00046805,-0.00003914
 ,-0.00002592,0.00014902,0.00007910,-0.00001201,-0.00003000,-0.00005638
 ,0.00007901,0.00006106,-0.00006341,0.00014812,-0.00021770,0.00002021,0
 .00000986,-0.00022736,-0.05372354,0.03568718,-0.00267360,0.00452192,-0
 .00853102,-0.00387275,-0.00336210,-0.00458685,0.00519724,0.00000532,0.
 00003678,-0.00007805,0.00006044,-0.00006003,-0.00000704,-0.00015204,-0
 .00004409,-0.00000110,0.00018664,-0.00050577,0.00028861,-0.00008546,0.
 00003251,0.00009776,-0.00008762,-0.00001727,-0.00001797,-0.00066194,0.
 00031013,-0.00022825,0.00065918,-0.00041634,0.00029108,0.00009435,-0.0
 0001825,0.00006228,-0.00045020,0.00011868,0.00022107,0.00019207,-0.000
 12938,0.00022016,-0.00000871,0.00004386,-0.00005628,0.00000173,-0.0000
 1268,0.00003404,-0.00003926,0.00002013,0.00000421,-0.00003111,-0.00000
 862,-0.00002647,-0.00002086,-0.00009344,0.00015628,0.00001597,0.000030
 23,-0.00009102,-0.00004993,0.00006088,-0.00007335,0.00058926,-0.000224
 73,0.00035424,-0.00012829,0.00041356,-0.00022237,-0.00013838,0.0002819
 9,-0.00011194,-0.00047077,-0.00070981,-0.00038000,0.00069061,-0.000456
 47,-0.00079566,-0.00002143,0.00003450,0.00012027,0.00062360,0.00593624
 ,0.00525548,-0.00776992,-0.00172231,0.00252767,-0.00026628,0.00072887,
 -0.00058535,-0.02438151,-0.01457422,-0.00635555,-0.00036448,-0.0051648
 0,0.00575195,-0.00007577,0.00030912,-0.00003309,0.00072851,0.00018825,
 0.00051229,-0.00001774,-0.00008952,-0.00017064,0.00045593,0.00008110,0
 .00017406,-0.00052859,-0.00005063,-0.00003503,0.00012786,0.00001110,-0
 .00002907,0.00004565,0.00000146,-0.00002432,-0.00232683,-0.00209734,-0
 .00010324,-0.00011562,-0.00002317,0.00007611,0.00002085,0.00003870,-0.
 00006295,0.09246915,0.00324647,-0.00239570,0.00125533,0.00137379,-0.00
 125788,-0.00031983,0.00015242,-0.00033285,0.00047874,-0.00005908,0.000
 37077,0.00015634,0.00406802,-0.00032594,0.00186812,-0.00018802,-0.0000
 1350,-0.00009307,-0.00000413,0.00004320,-0.00003417,-0.00017250,-0.000
 25232,-0.00005776,0.00020859,0.00018281,-0.00027936,0.00006613,-0.0000
 2767,-0.00006566,0.00007347,0.00010833,-0.00026325,-0.00090649,-0.0033
 4953,0.00012127,-0.00007894,-0.00008725,0.00018102,0.00246457,-0.00224
 757,0.00272770,-0.00009848,0.00014023,-0.00015242,-0.00000371,0.000018
 32,-0.00003431,-0.00002786,0.00000556,0.00001883,-0.00001566,-0.000028
 43,-0.00001091,0.00003350,-0.00006475,0.00009703,0.00000722,0.00002707
 ,0.00005731,0.04077687,-0.05854069,-0.00648309,-0.00320074,-0.01743002
 ,-0.01176170,0.00373595,0.00197580,-0.00323461,-0.00005740,0.00001065,
 0.00003443,-0.00001783,0.00002133,0.00000852,0.00001557,0.00003937,-0.
 00002613,0.00008206,0.00006903,-0.00009630,0.00005784,-0.00001808,-0.0
 0005114,0.00004702,0.00000358,-0.00003501,0.00021015,-0.00009627,0.000
 10790,-0.00019442,0.00015327,-0.00009826,-0.00002997,-0.00000057,-0.00
 003575,0.00016878,-0.00004331,-0.00010039,-0.00007414,0.00006484,-0.00
 006698,0.00000394,-0.00002316,0.00002900,-0.00000658,0.00001380,-0.000
 01706,0.00001920,-0.00001322,-0.00001062,0.00001662,0.00001075,0.00000
 745,-0.00000096,0.00004160,-0.00006853,-0.00000878,-0.00000730,0.00003
 214,0.00002502,-0.00003165,0.00003872,-0.00025388,0.00010560,-0.000137
 21,-0.00004497,-0.00008775,0.00006408,0.00016105,-0.00020444,0.0000286
 3,0.00014406,0.00071841,0.00016211,-0.00011917,-0.00024940,-0.00003557
 ,-0.00001435,-0.00006886,-0.00009403,-0.00312757,-0.00062712,-0.001268
 85,-0.00155731,0.00273362,0.00054758,0.00107476,-0.00033980,-0.0006237
 4,-0.02967181,-0.05905795,0.00002805,-0.00169462,-0.00009186,0.0066617
 9,0.00015327,-0.00007957,0.00020063,-0.00026059,0.00008234,0.00001509,
 -0.00012232,-0.00003727,0.00001310,-0.00007019,0.00022357,-0.00019948,
 0.00022204,-0.00005476,0.00010355,-0.00011016,0.00003574,-0.00003218,-
 0.00001839,-0.00000776,0.00002148,-0.00281125,0.00327446,-0.00063829,0
 .00007268,0.00000848,-0.00004297,-0.00000905,-0.00001496,0.00002306,-0
 .01364970,0.13702662,0.00309409,-0.00166144,0.00026742,-0.00066948,-0.
 00209711,0.00019174,-0.00065044,0.00036168,0.00056434,0.00006079,0.000
 26114,0.00028687,-0.00452052,0.00359282,-0.00177908,-0.00031330,-0.000
 04123,0.00000640,0.00006081,0.00007667,-0.00005782,0.00001289,-0.00011
 836,0.00006518,0.00005622,0.00018277,-0.00003954,0.00007917,-0.0000261
 2,-0.00006620,0.00036419,-0.00006319,0.00035790,-0.00234364,-0.0001174
 8,-0.00188564,-0.00013604,-0.00010910,0.00018318,0.00165256,-0.0004633
 4,0.00119976,0.00002005,0.00039394,0.00003160,0.00005121,0.00001522,-0
 .00006330,-0.00005475,0.00000834,0.00002339,-0.00001227,-0.00008483,-0
 .00003114,0.00005878,-0.00009304,0.00015188,-0.00001375,0.00001126,0.0
 0014422,0.01106214,-0.00614596,-0.01195731,-0.00384486,-0.00889877,-0.
 00070003,-0.00068496,-0.00063463,0.00056921,-0.00002730,-0.00000226,0.
 00004030,-0.00005420,0.00005201,0.00000397,0.00010678,0.00002405,-0.00
 002356,0.00001682,0.00045944,-0.00029511,0.00005292,-0.00001917,-0.000
 03499,0.00007473,0.00001849,0.00003706,0.00045188,-0.00016992,0.000231
 33,-0.00043813,0.00029671,-0.00025639,-0.00006151,0.00000697,-0.000051
 41,0.00033366,-0.00012013,-0.00016141,-0.00015989,0.00010509,-0.000174
 52,0.00000395,-0.00002336,0.00002642,-0.00000061,0.00000115,-0.0000095
 5,0.00002834,-0.00001396,-0.00000695,0.00002379,0.00000449,0.00001668,
 0.00001358,0.00005910,-0.00009875,-0.00001163,-0.00001890,0.00005848,0
 .00002906,-0.00003314,0.00003874,-0.00042365,0.00016907,-0.00027047,0.
 00010013,-0.00033679,0.00028042,0.00023391,-0.00033154,0.00012659,0.00
 028752,0.00097694,0.00008180,-0.00010517,-0.00054116,-0.00045792,-0.00
 003083,-0.00004000,-0.00000975,-0.00075263,0.00138377,0.00107151,0.003
 62771,0.00071293,-0.00129743,0.00034999,-0.00033948,0.00004940,-0.0051
 7715,-0.00747890,-0.00743981,0.00294342,0.01020439,-0.00782431,0.00026
 709,-0.00037923,-0.00005920,-0.00005594,0.00089402,-0.00245019,-0.0001
 3291,-0.00010290,0.00027165,-0.00038923,-0.00023219,-0.00011654,0.0005
 3758,0.00009074,0.00028710,-0.00019729,0.00000802,-0.00005099,-0.00003
 892,0.00001571,-0.00000135,-0.00034379,-0.00102366,0.00036982,0.000090
 59,0.00001597,-0.00005325,-0.00001534,-0.00002125,0.00004363,-0.004486
 25,0.01137962,0.03064595\\0.00000113,-0.00000171,0.00000141,0.00000003
 ,-0.00000303,-0.00000183,0.00000323,-0.00000746,0.00000174,-0.00000017
 ,0.00000009,-0.00000009,0.00000104,-0.00000287,-0.00000055,-0.00000066
 ,-0.00000015,0.00000006,-0.00000013,0.,0.00000003,-0.00000037,-0.00000
 041,-0.00000003,0.00000053,0.00000074,-0.00000038,-0.00000028,0.000000
 55,-0.00000023,0.00000211,0.00000056,-0.00000152,-0.00000073,-0.000001
 77,0.00000014,-0.00000042,-0.00000063,0.00000074,0.00000395,0.00000505
 ,-0.00000093,-0.00000015,-0.00000004,-0.00000115,-0.00000025,-0.000000
 05,-0.00000013,-0.00000144,0.00000018,-0.00000032,0.00000008,-0.000000
 67,0.00000012,0.00000001,-0.00000053,0.00000010,0.00000004,-0.00000044
 ,0.00000038,-0.00002476,0.00001424,0.00000730,0.00001656,0.00002000,0.
 00001349,0.00000586,0.00000542,-0.00000247,-0.00000116,-0.00000120,0.0
 0000029,-0.00000003,-0.00000014,0.00000078,0.00000037,0.00000068,0.000
 00059,0.00000157,-0.00000150,-0.00000250,0.00000253,0.00000467,0.00000
 206,0.00000023,0.00000201,0.00000241,-0.00000703,-0.00000197,-0.000002
 89,0.00001133,-0.00000767,0.00000359,0.00000081,-0.00000164,-0.0000017
 8,0.00000557,-0.00000128,0.00000032,-0.00000767,0.00000432,-0.00000292
 ,-0.00000033,0.,0.00000071,-0.00000108,0.00000048,0.00000006,0.0000002
 1,-0.00000004,0.00000002,-0.00000003,0.00000005,0.00000025,-0.00000022
 ,-0.00000013,0.00000049,-0.00000020,-0.00000017,0.00000030,-0.00000014
 ,0.,0.00000041,0.00000021,-0.00000006,-0.00000018,0.00000153,-0.000000
 16,0.00000066,0.00000077,-0.00000091,-0.00000038,-0.00000442,0.0000013
 3,-0.00000145,0.00000091,-0.00000152,0.00000146,0.00000087,-0.00000078
 ,-0.00000003,-0.00000590,-0.00000143,-0.00000723,-0.00000224,0.0000030
 9,-0.00000069,0.00000144,0.00000017,-0.00000026,-0.00002534,-0.0000486
 6,0.00002194,0.00000663,0.00001320,-0.00000893,0.00000174,0.00000152,-
 0.00000239,-0.00000535,-0.00000484,-0.00000981,0.00000488,0.00000964,-
 0.00000197,-0.00000211,0.00000183,0.00000018,-0.00000595,0.00000351,-0
 .00000026,-0.00000249,0.00000235,0.00000084,-0.00000044,0.00000091,0.0
 0000102,0.00000134,0.00000388,-0.00000096,0.00000002,-0.00000083,0.000
 00021,-0.00000016,-0.00000020,0.00000040,0.00002413,-0.00000558,-0.000
 01024\\\@
 The archive entry for this job was punched.


 EXPERIMENTALISTS THINK SILICON IS REALLY FUN TO USE
     ITS PLACE IN NOVEL COMPOUNDS IS CERTAIN TO AMUSE
 THEY SIT ALL DAY IN LABORATORIES MAKING ALL THIS SLUDGE
     "LOADED WITH THE SILICON THEY SAY", TO ME IT LOOKS LIKE FUDGE.
 FOR HAPPY THOUGH THEY BE WITH CRUD, I'D LIKE TO KNOW A LITTLE
      ABOUT THE PI BONDS ON THE EDGE AND SIGMAS IN THE MIDDLE.

 SO LETS DERIVE A WAVEFUNCTION.....6-31G*
     USE AN OPTIMAL GEOMETRY AND SEE WHERE ELECTRONS ARE.
 BUT WHAT OF CORRELATION?  ASKS THE WIRY LITTLE SKEPTIC.
     WE'LL THROW IN PERTURBATION AS AN ELECTRON ANTISEPTIC.
 AND WHEN THE PROGRAM GIVES US ANSWERS IN THEM WE CAN TRUST
     SINCE NOBODY CAN MAKE THE STUFF, WE HAVE NO CHOICE, WE MUST.

 SO THEORY GUYS HAVE GOT IT MADE, IN ROOMS FREE OF POLLUTION.
     INSTEAD OF PROBLEMS WITH THE REFLUX, THEY HAVE ONLY SOLUTIONS.
 AND WHEN THE FEDS ANNOUNCE THE LIST OF CARCINOGENIC TERRORS,
     THE THEORISTS SIT SAFELY AT THEIR TERMINALS FIXING ERRORS.
 IN OTHER WORDS, EXPERIMENTALISTS WILL LIKELY DIE OF CANCER
     FROM WORKING HARD YET FRUITLESSLY...TILL THEORY GIVES THE ANSWER.
          -- THOMAS A. HOLME, 1983
 Job cpu time:       6 days  2 hours 52 minutes 45.4 seconds.
 Elapsed time:       0 days  3 hours  4 minutes  4.8 seconds.
 File lengths (MBytes):  RWF=  13266 Int=      0 D2E=      0 Chk=    135 Scr=      2
 Normal termination of Gaussian 16 at Thu Mar  9 02:20:28 2023.
