 Entering Gaussian System, Link 0=/apps/GAU16/avx2/g16/g16
 Initial command:
 /apps/GAU16/avx2//g16/l1.exe "/localscratch/chegho/Gau-20744.inp" -scrdir="/localscratch/chegho/"
 Entering Link 1 = /apps/GAU16/avx2//g16/l1.exe PID=     20747.
  
 Copyright (c) 1988-2019, Gaussian, Inc.  All Rights Reserved.
  
 This is part of the Gaussian(R) 16 program.  It is based on
 the Gaussian(R) 09 system (copyright 2009, Gaussian, Inc.),
 the Gaussian(R) 03 system (copyright 2003, Gaussian, Inc.),
 the Gaussian(R) 98 system (copyright 1998, Gaussian, Inc.),
 the Gaussian(R) 94 system (copyright 1995, Gaussian, Inc.),
 the Gaussian 92(TM) system (copyright 1992, Gaussian, Inc.),
 the Gaussian 90(TM) system (copyright 1990, Gaussian, Inc.),
 the Gaussian 88(TM) system (copyright 1988, Gaussian, Inc.),
 the Gaussian 86(TM) system (copyright 1986, Carnegie Mellon
 University), and the Gaussian 82(TM) system (copyright 1983,
 Carnegie Mellon University). Gaussian is a federally registered
 trademark of Gaussian, Inc.
  
 This software contains proprietary and confidential information,
 including trade secrets, belonging to Gaussian, Inc.
  
 This software is provided under written license and may be
 used, copied, transmitted, or stored only in accord with that
 written license.
  
 The following legend is applicable only to US Government
 contracts under FAR:
  
                    RESTRICTED RIGHTS LEGEND
  
 Use, reproduction and disclosure by the US Government is
 subject to restrictions as set forth in subparagraphs (a)
 and (c) of the Commercial Computer Software - Restricted
 Rights clause in FAR 52.227-19.
  
 Gaussian, Inc.
 340 Quinnipiac St., Bldg. 40, Wallingford CT 06492
  
  
 ---------------------------------------------------------------
 Warning -- This program may not be used in any manner that
 competes with the business of Gaussian, Inc. or will provide
 assistance to any competitor of Gaussian, Inc.  The licensee
 of this program is prohibited from giving any competitor of
 Gaussian, Inc. access to this program.  By using this program,
 the user acknowledges that Gaussian, Inc. is engaged in the
 business of creating and licensing software in the field of
 computational chemistry and represents and warrants to the
 licensee that it is not a competitor of Gaussian, Inc. and that
 it will not use this program in any manner prohibited above.
 ---------------------------------------------------------------
  

 Cite this work as:
 Gaussian 16, Revision C.01,
 M. J. Frisch, G. W. Trucks, H. B. Schlegel, G. E. Scuseria, 
 M. A. Robb, J. R. Cheeseman, G. Scalmani, V. Barone, 
 G. A. Petersson, H. Nakatsuji, X. Li, M. Caricato, A. V. Marenich, 
 J. Bloino, B. G. Janesko, R. Gomperts, B. Mennucci, H. P. Hratchian, 
 J. V. Ortiz, A. F. Izmaylov, J. L. Sonnenberg, D. Williams-Young, 
 F. Ding, F. Lipparini, F. Egidi, J. Goings, B. Peng, A. Petrone, 
 T. Henderson, D. Ranasinghe, V. G. Zakrzewski, J. Gao, N. Rega, 
 G. Zheng, W. Liang, M. Hada, M. Ehara, K. Toyota, R. Fukuda, 
 J. Hasegawa, M. Ishida, T. Nakajima, Y. Honda, O. Kitao, H. Nakai, 
 T. Vreven, K. Throssell, J. A. Montgomery, Jr., J. E. Peralta, 
 F. Ogliaro, M. J. Bearpark, J. J. Heyd, E. N. Brothers, K. N. Kudin, 
 V. N. Staroverov, T. A. Keith, R. Kobayashi, J. Normand, 
 K. Raghavachari, A. P. Rendell, J. C. Burant, S. S. Iyengar, 
 J. Tomasi, M. Cossi, J. M. Millam, M. Klene, C. Adamo, R. Cammi, 
 J. W. Ochterski, R. L. Martin, K. Morokuma, O. Farkas, 
 J. B. Foresman, and D. J. Fox, Gaussian, Inc., Wallingford CT, 2019.
 
 ******************************************
 Gaussian 16:  ES64L-G16RevC.01  3-Jul-2019
                21-Feb-2023 
 ******************************************
 %nprocshared=48
 Will use up to   48 processors via shared memory.
 %chk=Mo19S44_min.chk
 %mem=100GB
 ---------------------------------------------------------
 # opt freq b3lyp/gen nosymm pseudo=read scf=maxcycles=500
 ---------------------------------------------------------
 1/18=20,19=15,26=3,38=1/1,3;
 2/9=110,12=2,15=1,17=6,18=5,40=1/2;
 3/5=7,11=2,16=1,17=8,25=1,30=1,71=1,74=-5/1,2,3;
 4//1;
 5/5=2,7=500,38=5/2;
 6/7=2,8=2,9=2,10=2,28=1/1;
 7/30=1/1,2,3,16;
 1/18=20,19=15,26=3/3(2);
 2/9=110,15=1/2;
 99//99;
 2/9=110,15=1/2;
 3/5=7,6=1,11=2,16=1,17=8,25=1,30=1,71=1,74=-5,82=7/1,2,3;
 4/5=5,16=3,69=1/1;
 5/5=2,7=500,38=5/2;
 7/30=1/1,2,3,16;
 1/18=20,19=15,26=3/3(-5);
 2/9=110,15=1/2;
 6/7=2,8=2,9=2,10=2,19=2,28=1/1;
 99/9=1/99;
 -------------------
 Title Card Required
 -------------------
 Symbolic Z-matrix:
 Charge =  0 Multiplicity = 1
 42                    0.28766   1.3939    12.50821 
 16                    2.30381   2.32859   13.53244 
 16                   -0.74781   2.07436   14.70609 
 16                   -0.50474   1.05941   10.23742 
 16                    1.90114  -0.33196   11.91271 
 42                   -2.08016   2.77231   10.91537 
 16                   -2.93268   2.52936   8.63446 
 16                   -0.102     3.70583   11.95019 
 42                    0.91635   2.99863   9.84043 
 16                    0.0548    2.71784   7.56187 
 16                    2.51438   1.2495    9.20735 
 42                    3.34301   1.57497   11.46506 
 42                   -1.49759   4.45225   8.23573 
 16                    5.44622   2.55462   12.53709 
 16                    2.97183   3.88851   10.8417 
 16                   -2.43102   5.13129   10.38002 
 16                    1.1308    7.02498   6.54702 
 42                   -4.42746   4.22745   9.44741 
 16                   -5.89895   2.20654   9.66627 
 16                   -5.50191   4.79348   11.40101 
 42                    2.5754    0.03669   14.20596 
 16                    4.8175    0.45707   15.30525 
 16                    1.63605   0.72615   16.23736 
 42                    1.50174   4.60028   7.18189 
 16                    0.78252   4.48425   4.79277 
 16                    0.53231   5.34423   9.26092 
 42                    3.97176   3.13922   8.76078 
 16                    3.03659   2.80931   6.54244 
 16                    3.60793   5.45025   8.14415 
 42                    4.4757    4.62475   6.06645 
 16                    6.82364   4.68679   6.13894 
 16                    4.32723   7.06512   5.5699 
 42                    2.40868   6.37509   4.6057 
 16                    3.79624   4.4314    3.88113 
 16                   -1.27894   7.28458   3.88124 
 42                   -0.93916   6.08929   5.59092 
 16                   -2.3681    4.14909   5.82586 
 16                   -1.86403   6.94907   7.65421 
 42                   -3.68884   5.97749   6.54367 
 16                   -5.68668   4.67902   7.3364 
 16                   -4.49063   7.15936   4.99031 
 42                   -5.16465   2.35682   11.80682 
 16                   -3.27182   3.38534   13.0478 
 16                   -3.48685   0.70397   11.38805 
 42                   -2.67198   1.08511   13.68206 
 16                   -1.17819  -0.62941   12.9422 
 16                   -4.05733   0.37249   15.10989 
 42                   -0.30732  -0.27783   15.17421 
 16                    1.25801  -1.94862   14.52425 
 16                   -1.24908  -1.18748   16.84293 
 42                    5.80016   0.28128   13.02046 
 16                    4.9811   -0.30989   10.87958 
 16                    8.3137    1.17682   10.65229 
 42                    6.27155   1.70717   10.39579 
 16                    5.61976   1.2886    8.04528 
 16                    6.21672   4.11352   9.78214 
 42                    6.99763   3.16124   7.83177 
 16                    9.05639   2.66568   7.89553 
 16                    2.19319   7.64485   2.92277 
 16                    7.79745  -0.26705   13.48981 
 16                   -6.82014   1.73414   12.97567 
 16                   -5.20782   6.40296   8.46192 
 16                    4.53605  -1.52031   14.19617 
 

 GradGradGradGradGradGradGradGradGradGradGradGradGradGradGradGradGradGrad
 Berny optimization.
 Initialization pass.
                           ----------------------------
                           !    Initial Parameters    !
                           ! (Angstroms and Degrees)  !
 --------------------------                            --------------------------
 ! Name  Definition              Value          Derivative Info.                !
 --------------------------------------------------------------------------------
 ! R1    R(1,2)                  2.4469         estimate D2E/DX2                !
 ! R2    R(1,3)                  2.5231         estimate D2E/DX2                !
 ! R3    R(1,4)                  2.4282         estimate D2E/DX2                !
 ! R4    R(1,5)                  2.4365         estimate D2E/DX2                !
 ! R5    R(1,8)                  2.41           estimate D2E/DX2                !
 ! R6    R(1,46)                 2.5359         estimate D2E/DX2                !
 ! R7    R(2,12)                 2.4335         estimate D2E/DX2                !
 ! R8    R(2,21)                 2.4042         estimate D2E/DX2                !
 ! R9    R(3,45)                 2.3937         estimate D2E/DX2                !
 ! R10   R(3,48)                 2.4384         estimate D2E/DX2                !
 ! R11   R(4,6)                  2.424          estimate D2E/DX2                !
 ! R12   R(4,9)                  2.4367         estimate D2E/DX2                !
 ! R13   R(5,12)                 2.4322         estimate D2E/DX2                !
 ! R14   R(5,21)                 2.4186         estimate D2E/DX2                !
 ! R15   R(6,7)                  2.4471         estimate D2E/DX2                !
 ! R16   R(6,8)                  2.4198         estimate D2E/DX2                !
 ! R17   R(6,16)                 2.4443         estimate D2E/DX2                !
 ! R18   R(6,43)                 2.5186         estimate D2E/DX2                !
 ! R19   R(6,44)                 2.5456         estimate D2E/DX2                !
 ! R20   R(7,13)                 2.4323         estimate D2E/DX2                !
 ! R21   R(7,18)                 2.4039         estimate D2E/DX2                !
 ! R22   R(8,9)                  2.4471         estimate D2E/DX2                !
 ! R23   R(9,10)                 2.4521         estimate D2E/DX2                !
 ! R24   R(9,11)                 2.4523         estimate D2E/DX2                !
 ! R25   R(9,15)                 2.4535         estimate D2E/DX2                !
 ! R26   R(9,26)                 2.4465         estimate D2E/DX2                !
 ! R27   R(10,13)                2.4233         estimate D2E/DX2                !
 ! R28   R(10,24)                2.4045         estimate D2E/DX2                !
 ! R29   R(11,12)                2.4269         estimate D2E/DX2                !
 ! R30   R(11,27)                2.4278         estimate D2E/DX2                !
 ! R31   R(12,14)                2.5559         estimate D2E/DX2                !
 ! R32   R(12,15)                2.4246         estimate D2E/DX2                !
 ! R33   R(12,52)                2.5649         estimate D2E/DX2                !
 ! R34   R(12,54)                3.1204         estimate D2E/DX2                !
 ! R35   R(13,16)                2.4352         estimate D2E/DX2                !
 ! R36   R(13,26)                2.4428         estimate D2E/DX2                !
 ! R37   R(13,37)                2.5801         estimate D2E/DX2                !
 ! R38   R(13,38)                2.5897         estimate D2E/DX2                !
 ! R39   R(14,51)                2.351          estimate D2E/DX2                !
 ! R40   R(14,54)                2.4463         estimate D2E/DX2                !
 ! R41   R(15,27)                2.4272         estimate D2E/DX2                !
 ! R42   R(16,18)                2.3817         estimate D2E/DX2                !
 ! R43   R(17,24)                2.5337         estimate D2E/DX2                !
 ! R44   R(17,33)                2.4133         estimate D2E/DX2                !
 ! R45   R(17,36)                2.4646         estimate D2E/DX2                !
 ! R46   R(18,19)                2.5094         estimate D2E/DX2                !
 ! R47   R(18,20)                2.3003         estimate D2E/DX2                !
 ! R48   R(18,40)                2.4992         estimate D2E/DX2                !
 ! R49   R(18,42)                3.0999         estimate D2E/DX2                !
 ! R50   R(18,62)                2.5126         estimate D2E/DX2                !
 ! R51   R(19,42)                2.268          estimate D2E/DX2                !
 ! R52   R(20,42)                2.4931         estimate D2E/DX2                !
 ! R53   R(21,22)                2.5322         estimate D2E/DX2                !
 ! R54   R(21,23)                2.3419         estimate D2E/DX2                !
 ! R55   R(21,48)                3.0572         estimate D2E/DX2                !
 ! R56   R(21,49)                2.4038         estimate D2E/DX2                !
 ! R57   R(21,63)                2.5037         estimate D2E/DX2                !
 ! R58   R(22,51)                2.4934         estimate D2E/DX2                !
 ! R59   R(22,63)                2.2846         estimate D2E/DX2                !
 ! R60   R(23,48)                2.4321         estimate D2E/DX2                !
 ! R61   R(24,25)                2.4977         estimate D2E/DX2                !
 ! R62   R(24,26)                2.4116         estimate D2E/DX2                !
 ! R63   R(24,28)                2.4438         estimate D2E/DX2                !
 ! R64   R(24,29)                2.4667         estimate D2E/DX2                !
 ! R65   R(25,33)                2.5009         estimate D2E/DX2                !
 ! R66   R(25,36)                2.4854         estimate D2E/DX2                !
 ! R67   R(27,28)                2.4299         estimate D2E/DX2                !
 ! R68   R(27,29)                2.4194         estimate D2E/DX2                !
 ! R69   R(27,30)                3.1177         estimate D2E/DX2                !
 ! R70   R(27,55)                2.5793         estimate D2E/DX2                !
 ! R71   R(27,56)                2.6518         estimate D2E/DX2                !
 ! R72   R(28,30)                2.365          estimate D2E/DX2                !
 ! R73   R(29,30)                2.3982         estimate D2E/DX2                !
 ! R74   R(30,31)                2.3499         estimate D2E/DX2                !
 ! R75   R(30,32)                2.4948         estimate D2E/DX2                !
 ! R76   R(30,33)                3.0773         estimate D2E/DX2                !
 ! R77   R(30,34)                2.2967         estimate D2E/DX2                !
 ! R78   R(31,57)                2.2854         estimate D2E/DX2                !
 ! R79   R(32,33)                2.2554         estimate D2E/DX2                !
 ! R80   R(33,34)                2.4956         estimate D2E/DX2                !
 ! R81   R(33,59)                2.1192         estimate D2E/DX2                !
 ! R82   R(35,36)                2.1136         estimate D2E/DX2                !
 ! R83   R(36,37)                2.421          estimate D2E/DX2                !
 ! R84   R(36,38)                2.419          estimate D2E/DX2                !
 ! R85   R(36,39)                2.9122         estimate D2E/DX2                !
 ! R86   R(37,39)                2.367          estimate D2E/DX2                !
 ! R87   R(38,39)                2.3467         estimate D2E/DX2                !
 ! R88   R(39,40)                2.5111         estimate D2E/DX2                !
 ! R89   R(39,41)                2.1101         estimate D2E/DX2                !
 ! R90   R(39,62)                2.4835         estimate D2E/DX2                !
 ! R91   R(40,62)                2.1138         estimate D2E/DX2                !
 ! R92   R(42,43)                2.4861         estimate D2E/DX2                !
 ! R93   R(42,44)                2.3921         estimate D2E/DX2                !
 ! R94   R(42,61)                2.12           estimate D2E/DX2                !
 ! R95   R(43,45)                2.4603         estimate D2E/DX2                !
 ! R96   R(44,45)                2.4641         estimate D2E/DX2                !
 ! R97   R(45,46)                2.3913         estimate D2E/DX2                !
 ! R98   R(45,47)                2.1132         estimate D2E/DX2                !
 ! R99   R(45,48)                3.1106         estimate D2E/DX2                !
 ! R100  R(46,48)                2.4215         estimate D2E/DX2                !
 ! R101  R(48,49)                2.38           estimate D2E/DX2                !
 ! R102  R(48,50)                2.1211         estimate D2E/DX2                !
 ! R103  R(51,52)                2.3672         estimate D2E/DX2                !
 ! R104  R(51,54)                3.0239         estimate D2E/DX2                !
 ! R105  R(51,60)                2.1237         estimate D2E/DX2                !
 ! R106  R(51,63)                2.4952         estimate D2E/DX2                !
 ! R107  R(52,54)                2.4429         estimate D2E/DX2                !
 ! R108  R(53,54)                2.1254         estimate D2E/DX2                !
 ! R109  R(54,55)                2.4749         estimate D2E/DX2                !
 ! R110  R(54,56)                2.484          estimate D2E/DX2                !
 ! R111  R(54,57)                3.0357         estimate D2E/DX2                !
 ! R112  R(55,57)                2.3347         estimate D2E/DX2                !
 ! R113  R(56,57)                2.3067         estimate D2E/DX2                !
 ! R114  R(57,58)                2.1185         estimate D2E/DX2                !
 ! A1    A(2,1,3)               82.5595         estimate D2E/DX2                !
 ! A2    A(2,1,4)              135.474          estimate D2E/DX2                !
 ! A3    A(2,1,5)               80.0521         estimate D2E/DX2                !
 ! A4    A(2,1,8)               82.1665         estimate D2E/DX2                !
 ! A5    A(2,1,46)             135.1865         estimate D2E/DX2                !
 ! A6    A(3,1,4)              135.8779         estimate D2E/DX2                !
 ! A7    A(3,1,5)              132.5097         estimate D2E/DX2                !
 ! A8    A(3,1,8)               82.9132         estimate D2E/DX2                !
 ! A9    A(3,1,46)              80.1468         estimate D2E/DX2                !
 ! A10   A(4,1,5)               83.6825         estimate D2E/DX2                !
 ! A11   A(4,1,8)               82.117          estimate D2E/DX2                !
 ! A12   A(4,1,46)              82.0392         estimate D2E/DX2                !
 ! A13   A(5,1,8)              136.8848         estimate D2E/DX2                !
 ! A14   A(5,1,46)              81.9204         estimate D2E/DX2                !
 ! A15   A(8,1,46)             135.3615         estimate D2E/DX2                !
 ! A16   A(1,2,12)              82.9905         estimate D2E/DX2                !
 ! A17   A(1,2,21)              81.1528         estimate D2E/DX2                !
 ! A18   A(12,2,21)             83.9461         estimate D2E/DX2                !
 ! A19   A(1,3,45)              81.1282         estimate D2E/DX2                !
 ! A20   A(1,3,48)              80.3829         estimate D2E/DX2                !
 ! A21   A(1,4,6)               81.5583         estimate D2E/DX2                !
 ! A22   A(1,4,9)               81.5131         estimate D2E/DX2                !
 ! A23   A(6,4,9)               82.0814         estimate D2E/DX2                !
 ! A24   A(1,5,12)              83.2351         estimate D2E/DX2                !
 ! A25   A(1,5,21)              81.0776         estimate D2E/DX2                !
 ! A26   A(12,5,21)             83.6697         estimate D2E/DX2                !
 ! A27   A(4,6,7)               84.0061         estimate D2E/DX2                !
 ! A28   A(4,6,8)               82.0047         estimate D2E/DX2                !
 ! A29   A(4,6,16)             135.5638         estimate D2E/DX2                !
 ! A30   A(4,6,43)             135.7524         estimate D2E/DX2                !
 ! A31   A(4,6,44)              80.6144         estimate D2E/DX2                !
 ! A32   A(7,6,8)              136.1946         estimate D2E/DX2                !
 ! A33   A(7,6,16)              80.8892         estimate D2E/DX2                !
 ! A34   A(7,6,43)             130.4293         estimate D2E/DX2                !
 ! A35   A(7,6,44)              84.2549         estimate D2E/DX2                !
 ! A36   A(8,6,16)              80.717          estimate D2E/DX2                !
 ! A37   A(8,6,43)              86.0328         estimate D2E/DX2                !
 ! A38   A(8,6,44)             133.2974         estimate D2E/DX2                !
 ! A39   A(16,6,43)             83.2587         estimate D2E/DX2                !
 ! A40   A(16,6,44)            138.2019         estimate D2E/DX2                !
 ! A41   A(43,6,44)             77.2377         estimate D2E/DX2                !
 ! A42   A(6,7,13)              82.459          estimate D2E/DX2                !
 ! A43   A(6,7,18)              80.287          estimate D2E/DX2                !
 ! A44   A(13,7,18)             82.1761         estimate D2E/DX2                !
 ! A45   A(1,8,6)               82.0163         estimate D2E/DX2                !
 ! A46   A(1,8,9)               81.6689         estimate D2E/DX2                !
 ! A47   A(6,8,9)               81.9528         estimate D2E/DX2                !
 ! A48   A(4,9,8)               81.1896         estimate D2E/DX2                !
 ! A49   A(4,9,10)              81.6833         estimate D2E/DX2                !
 ! A50   A(4,9,11)              81.6318         estimate D2E/DX2                !
 ! A51   A(4,9,15)             135.2967         estimate D2E/DX2                !
 ! A52   A(4,9,26)             135.2399         estimate D2E/DX2                !
 ! A53   A(8,9,10)             133.4722         estimate D2E/DX2                !
 ! A54   A(8,9,11)             134.4167         estimate D2E/DX2                !
 ! A55   A(8,9,15)              83.7986         estimate D2E/DX2                !
 ! A56   A(8,9,26)              82.0571         estimate D2E/DX2                !
 ! A57   A(10,9,11)             84.6868         estimate D2E/DX2                !
 ! A58   A(10,9,15)            135.652          estimate D2E/DX2                !
 ! A59   A(10,9,26)             80.475          estimate D2E/DX2                !
 ! A60   A(11,9,15)             79.5206         estimate D2E/DX2                !
 ! A61   A(11,9,26)            136.4678         estimate D2E/DX2                !
 ! A62   A(15,9,26)             83.1329         estimate D2E/DX2                !
 ! A63   A(9,10,13)             83.3808         estimate D2E/DX2                !
 ! A64   A(9,10,24)             81.1278         estimate D2E/DX2                !
 ! A65   A(13,10,24)            82.479          estimate D2E/DX2                !
 ! A66   A(9,11,12)             83.4934         estimate D2E/DX2                !
 ! A67   A(9,11,27)             83.3088         estimate D2E/DX2                !
 ! A68   A(12,11,27)            82.0546         estimate D2E/DX2                !
 ! A69   A(2,12,5)              80.4028         estimate D2E/DX2                !
 ! A70   A(2,12,11)            133.318          estimate D2E/DX2                !
 ! A71   A(2,12,14)             82.8986         estimate D2E/DX2                !
 ! A72   A(2,12,15)             81.81           estimate D2E/DX2                !
 ! A73   A(2,12,52)            133.9655         estimate D2E/DX2                !
 ! A74   A(2,12,54)            132.7476         estimate D2E/DX2                !
 ! A75   A(5,12,11)             82.164          estimate D2E/DX2                !
 ! A76   A(5,12,14)            135.328          estimate D2E/DX2                !
 ! A77   A(5,12,15)            134.8025         estimate D2E/DX2                !
 ! A78   A(5,12,52)             81.0524         estimate D2E/DX2                !
 ! A79   A(5,12,54)            130.7414         estimate D2E/DX2                !
 ! A80   A(11,12,14)           136.2672         estimate D2E/DX2                !
 ! A81   A(11,12,15)            80.5914         estimate D2E/DX2                !
 ! A82   A(11,12,52)            84.6727         estimate D2E/DX2                !
 ! A83   A(11,12,54)            90.4208         estimate D2E/DX2                !
 ! A84   A(14,12,15)            82.4191         estimate D2E/DX2                !
 ! A85   A(14,12,52)            81.4816         estimate D2E/DX2                !
 ! A86   A(15,12,52)           137.7551         estimate D2E/DX2                !
 ! A87   A(15,12,54)            90.8681         estimate D2E/DX2                !
 ! A88   A(7,13,10)             81.8203         estimate D2E/DX2                !
 ! A89   A(7,13,16)             81.3695         estimate D2E/DX2                !
 ! A90   A(7,13,26)            135.2488         estimate D2E/DX2                !
 ! A91   A(7,13,37)             82.0192         estimate D2E/DX2                !
 ! A92   A(7,13,38)            135.6878         estimate D2E/DX2                !
 ! A93   A(10,13,16)           133.6286         estimate D2E/DX2                !
 ! A94   A(10,13,26)            81.1245         estimate D2E/DX2                !
 ! A95   A(10,13,37)            82.6641         estimate D2E/DX2                !
 ! A96   A(10,13,38)           135.9119         estimate D2E/DX2                !
 ! A97   A(16,13,26)            81.2083         estimate D2E/DX2                !
 ! A98   A(16,13,37)           136.5402         estimate D2E/DX2                !
 ! A99   A(16,13,38)            82.7989         estimate D2E/DX2                !
 ! A100  A(26,13,37)           135.664          estimate D2E/DX2                !
 ! A101  A(26,13,38)            81.9388         estimate D2E/DX2                !
 ! A102  A(37,13,38)            81.7098         estimate D2E/DX2                !
 ! A103  A(12,14,51)            80.7633         estimate D2E/DX2                !
 ! A104  A(9,15,12)             83.5169         estimate D2E/DX2                !
 ! A105  A(9,15,27)             83.2979         estimate D2E/DX2                !
 ! A106  A(12,15,27)            82.1137         estimate D2E/DX2                !
 ! A107  A(6,16,13)             82.4569         estimate D2E/DX2                !
 ! A108  A(6,16,18)             80.7838         estimate D2E/DX2                !
 ! A109  A(13,16,18)            82.5705         estimate D2E/DX2                !
 ! A110  A(24,17,33)            82.3185         estimate D2E/DX2                !
 ! A111  A(24,17,36)            81.7699         estimate D2E/DX2                !
 ! A112  A(33,17,36)            91.7436         estimate D2E/DX2                !
 ! A113  A(7,18,16)             83.0651         estimate D2E/DX2                !
 ! A114  A(7,18,19)             79.9357         estimate D2E/DX2                !
 ! A115  A(7,18,20)            138.7181         estimate D2E/DX2                !
 ! A116  A(7,18,40)             98.9332         estimate D2E/DX2                !
 ! A117  A(7,18,42)             88.7969         estimate D2E/DX2                !
 ! A118  A(7,18,62)            132.2298         estimate D2E/DX2                !
 ! A119  A(16,18,19)           139.7292         estimate D2E/DX2                !
 ! A120  A(16,18,20)            88.0285         estimate D2E/DX2                !
 ! A121  A(16,18,40)           133.1989         estimate D2E/DX2                !
 ! A122  A(16,18,42)            97.4876         estimate D2E/DX2                !
 ! A123  A(16,18,62)            94.8957         estimate D2E/DX2                !
 ! A124  A(19,18,20)            81.3848         estimate D2E/DX2                !
 ! A125  A(19,18,40)            85.626          estimate D2E/DX2                !
 ! A126  A(19,18,62)           123.3245         estimate D2E/DX2                !
 ! A127  A(20,18,40)           115.9487         estimate D2E/DX2                !
 ! A128  A(20,18,62)            88.5664         estimate D2E/DX2                !
 ! A129  A(40,18,42)           129.2067         estimate D2E/DX2                !
 ! A130  A(42,18,62)           138.3454         estimate D2E/DX2                !
 ! A131  A(2,21,5)              81.2679         estimate D2E/DX2                !
 ! A132  A(2,21,22)             93.6339         estimate D2E/DX2                !
 ! A133  A(2,21,23)             85.2411         estimate D2E/DX2                !
 ! A134  A(2,21,48)             94.6045         estimate D2E/DX2                !
 ! A135  A(2,21,49)            139.6858         estimate D2E/DX2                !
 ! A136  A(2,21,63)            132.8593         estimate D2E/DX2                !
 ! A137  A(5,21,22)            133.1392         estimate D2E/DX2                !
 ! A138  A(5,21,23)            139.0719         estimate D2E/DX2                !
 ! A139  A(5,21,48)             91.2459         estimate D2E/DX2                !
 ! A140  A(5,21,49)             81.1921         estimate D2E/DX2                !
 ! A141  A(5,21,63)             96.8818         estimate D2E/DX2                !
 ! A142  A(22,21,23)            85.9692         estimate D2E/DX2                !
 ! A143  A(22,21,48)           135.6006         estimate D2E/DX2                !
 ! A144  A(22,21,49)           124.3939         estimate D2E/DX2                !
 ! A145  A(23,21,49)            84.7483         estimate D2E/DX2                !
 ! A146  A(23,21,63)           120.0388         estimate D2E/DX2                !
 ! A147  A(48,21,63)           132.5061         estimate D2E/DX2                !
 ! A148  A(49,21,63)            85.186          estimate D2E/DX2                !
 ! A149  A(21,22,51)            86.5284         estimate D2E/DX2                !
 ! A150  A(10,24,17)           134.4823         estimate D2E/DX2                !
 ! A151  A(10,24,25)            86.6469         estimate D2E/DX2                !
 ! A152  A(10,24,26)            82.1469         estimate D2E/DX2                !
 ! A153  A(10,24,28)            81.115          estimate D2E/DX2                !
 ! A154  A(10,24,29)           136.2151         estimate D2E/DX2                !
 ! A155  A(17,24,25)            76.2687         estimate D2E/DX2                !
 ! A156  A(17,24,26)            82.0648         estimate D2E/DX2                !
 ! A157  A(17,24,28)           136.6945         estimate D2E/DX2                !
 ! A158  A(17,24,29)            83.8576         estimate D2E/DX2                !
 ! A159  A(25,24,26)           136.3194         estimate D2E/DX2                !
 ! A160  A(25,24,28)            84.0605         estimate D2E/DX2                !
 ! A161  A(25,24,29)           129.4215         estimate D2E/DX2                !
 ! A162  A(26,24,28)           134.7595         estimate D2E/DX2                !
 ! A163  A(26,24,29)            84.2972         estimate D2E/DX2                !
 ! A164  A(28,24,29)            79.5331         estimate D2E/DX2                !
 ! A165  A(24,25,33)            81.3261         estimate D2E/DX2                !
 ! A166  A(24,25,36)            82.0849         estimate D2E/DX2                !
 ! A167  A(33,25,36)            89.2086         estimate D2E/DX2                !
 ! A168  A(9,26,13)             83.0943         estimate D2E/DX2                !
 ! A169  A(9,26,24)             81.1028         estimate D2E/DX2                !
 ! A170  A(13,26,24)            81.9284         estimate D2E/DX2                !
 ! A171  A(11,27,15)            80.5198         estimate D2E/DX2                !
 ! A172  A(11,27,28)            80.2833         estimate D2E/DX2                !
 ! A173  A(11,27,29)           134.4354         estimate D2E/DX2                !
 ! A174  A(11,27,30)           128.8185         estimate D2E/DX2                !
 ! A175  A(11,27,55)            82.8826         estimate D2E/DX2                !
 ! A176  A(11,27,56)           136.3275         estimate D2E/DX2                !
 ! A177  A(15,27,28)           131.7624         estimate D2E/DX2                !
 ! A178  A(15,27,29)            82.0497         estimate D2E/DX2                !
 ! A179  A(15,27,30)           131.3302         estimate D2E/DX2                !
 ! A180  A(15,27,55)           136.2637         estimate D2E/DX2                !
 ! A181  A(15,27,56)            84.5565         estimate D2E/DX2                !
 ! A182  A(28,27,29)            80.7429         estimate D2E/DX2                !
 ! A183  A(28,27,55)            83.9863         estimate D2E/DX2                !
 ! A184  A(28,27,56)           136.6613         estimate D2E/DX2                !
 ! A185  A(29,27,55)           135.2953         estimate D2E/DX2                !
 ! A186  A(29,27,56)            82.7917         estimate D2E/DX2                !
 ! A187  A(30,27,55)            89.9347         estimate D2E/DX2                !
 ! A188  A(30,27,56)            91.2005         estimate D2E/DX2                !
 ! A189  A(55,27,56)            80.1859         estimate D2E/DX2                !
 ! A190  A(24,28,27)            84.4527         estimate D2E/DX2                !
 ! A191  A(24,28,30)            82.6619         estimate D2E/DX2                !
 ! A192  A(24,29,27)            84.1849         estimate D2E/DX2                !
 ! A193  A(24,29,30)            81.511          estimate D2E/DX2                !
 ! A194  A(27,30,31)            98.4777         estimate D2E/DX2                !
 ! A195  A(27,30,32)           128.9372         estimate D2E/DX2                !
 ! A196  A(27,30,33)           124.9357         estimate D2E/DX2                !
 ! A197  A(27,30,34)           137.2538         estimate D2E/DX2                !
 ! A198  A(28,30,29)            82.5119         estimate D2E/DX2                !
 ! A199  A(28,30,31)           128.4659         estimate D2E/DX2                !
 ! A200  A(28,30,32)           139.0002         estimate D2E/DX2                !
 ! A201  A(28,30,33)            97.0897         estimate D2E/DX2                !
 ! A202  A(28,30,34)            86.9539         estimate D2E/DX2                !
 ! A203  A(29,30,31)           109.0098         estimate D2E/DX2                !
 ! A204  A(29,30,32)            79.2918         estimate D2E/DX2                !
 ! A205  A(29,30,33)            88.4189         estimate D2E/DX2                !
 ! A206  A(29,30,34)           138.2697         estimate D2E/DX2                !
 ! A207  A(31,30,32)            92.2797         estimate D2E/DX2                !
 ! A208  A(31,30,33)           132.126          estimate D2E/DX2                !
 ! A209  A(31,30,34)           109.0979         estimate D2E/DX2                !
 ! A210  A(32,30,34)            82.84           estimate D2E/DX2                !
 ! A211  A(30,31,57)            94.6631         estimate D2E/DX2                !
 ! A212  A(17,33,25)            78.4122         estimate D2E/DX2                !
 ! A213  A(17,33,30)            97.2962         estimate D2E/DX2                !
 ! A214  A(17,33,32)            91.3837         estimate D2E/DX2                !
 ! A215  A(17,33,34)           137.535          estimate D2E/DX2                !
 ! A216  A(17,33,59)           115.0638         estimate D2E/DX2                !
 ! A217  A(25,33,30)            88.3503         estimate D2E/DX2                !
 ! A218  A(25,33,32)           138.8036         estimate D2E/DX2                !
 ! A219  A(25,33,34)            78.1349         estimate D2E/DX2                !
 ! A220  A(25,33,59)           116.5055         estimate D2E/DX2                !
 ! A221  A(30,33,59)           141.8186         estimate D2E/DX2                !
 ! A222  A(32,33,34)            83.6527         estimate D2E/DX2                !
 ! A223  A(32,33,59)           104.0454         estimate D2E/DX2                !
 ! A224  A(34,33,59)           107.015          estimate D2E/DX2                !
 ! A225  A(17,36,25)            77.7581         estimate D2E/DX2                !
 ! A226  A(17,36,35)           103.5395         estimate D2E/DX2                !
 ! A227  A(17,36,37)           139.6679         estimate D2E/DX2                !
 ! A228  A(17,36,38)            81.6797         estimate D2E/DX2                !
 ! A229  A(17,36,39)           132.895          estimate D2E/DX2                !
 ! A230  A(25,36,35)           102.5212         estimate D2E/DX2                !
 ! A231  A(25,36,37)            85.5545         estimate D2E/DX2                !
 ! A232  A(25,36,38)           140.1989         estimate D2E/DX2                !
 ! A233  A(25,36,39)           137.2494         estimate D2E/DX2                !
 ! A234  A(35,36,37)           115.9013         estimate D2E/DX2                !
 ! A235  A(35,36,38)           115.3079         estimate D2E/DX2                !
 ! A236  A(35,36,39)            97.7334         estimate D2E/DX2                !
 ! A237  A(37,36,38)            88.6481         estimate D2E/DX2                !
 ! A238  A(13,37,36)            78.3075         estimate D2E/DX2                !
 ! A239  A(13,37,39)            79.2949         estimate D2E/DX2                !
 ! A240  A(13,38,36)            78.1561         estimate D2E/DX2                !
 ! A241  A(13,38,39)            79.4627         estimate D2E/DX2                !
 ! A242  A(36,39,40)           150.9648         estimate D2E/DX2                !
 ! A243  A(36,39,41)            95.5335         estimate D2E/DX2                !
 ! A244  A(36,39,62)           145.4466         estimate D2E/DX2                !
 ! A245  A(37,39,38)            91.6869         estimate D2E/DX2                !
 ! A246  A(37,39,40)            98.0616         estimate D2E/DX2                !
 ! A247  A(37,39,41)           114.9244         estimate D2E/DX2                !
 ! A248  A(37,39,62)           135.0595         estimate D2E/DX2                !
 ! A249  A(38,39,40)           133.1048         estimate D2E/DX2                !
 ! A250  A(38,39,41)           114.3269         estimate D2E/DX2                !
 ! A251  A(38,39,62)            92.2439         estimate D2E/DX2                !
 ! A252  A(40,39,41)           102.6915         estimate D2E/DX2                !
 ! A253  A(41,39,62)           103.9003         estimate D2E/DX2                !
 ! A254  A(18,40,39)            87.6632         estimate D2E/DX2                !
 ! A255  A(18,42,43)            87.0891         estimate D2E/DX2                !
 ! A256  A(18,42,44)            96.714          estimate D2E/DX2                !
 ! A257  A(18,42,61)           141.4961         estimate D2E/DX2                !
 ! A258  A(19,42,20)            82.3763         estimate D2E/DX2                !
 ! A259  A(19,42,43)           138.1624         estimate D2E/DX2                !
 ! A260  A(19,42,44)            90.9212         estimate D2E/DX2                !
 ! A261  A(19,42,61)           104.3633         estimate D2E/DX2                !
 ! A262  A(20,42,43)            77.2856         estimate D2E/DX2                !
 ! A263  A(20,42,44)           137.8749         estimate D2E/DX2                !
 ! A264  A(20,42,61)           105.7339         estimate D2E/DX2                !
 ! A265  A(43,42,44)            80.7483         estimate D2E/DX2                !
 ! A266  A(43,42,61)           116.1573         estimate D2E/DX2                !
 ! A267  A(44,42,61)           116.1849         estimate D2E/DX2                !
 ! A268  A(6,43,42)             80.6136         estimate D2E/DX2                !
 ! A269  A(6,43,45)             82.8392         estimate D2E/DX2                !
 ! A270  A(42,43,45)            85.8436         estimate D2E/DX2                !
 ! A271  A(6,44,42)             81.8758         estimate D2E/DX2                !
 ! A272  A(6,44,45)             82.2094         estimate D2E/DX2                !
 ! A273  A(42,44,45)            87.8274         estimate D2E/DX2                !
 ! A274  A(3,45,43)             85.4049         estimate D2E/DX2                !
 ! A275  A(3,45,44)            136.7219         estimate D2E/DX2                !
 ! A276  A(3,45,46)             85.7862         estimate D2E/DX2                !
 ! A277  A(3,45,47)            112.1657         estimate D2E/DX2                !
 ! A278  A(43,45,44)            79.8625         estimate D2E/DX2                !
 ! A279  A(43,45,46)           137.9761         estimate D2E/DX2                !
 ! A280  A(43,45,47)           109.2464         estimate D2E/DX2                !
 ! A281  A(43,45,48)           135.9437         estimate D2E/DX2                !
 ! A282  A(44,45,46)            78.9094         estimate D2E/DX2                !
 ! A283  A(44,45,47)           111.1049         estimate D2E/DX2                !
 ! A284  A(44,45,48)           129.0655         estimate D2E/DX2                !
 ! A285  A(46,45,47)           112.1344         estimate D2E/DX2                !
 ! A286  A(47,45,48)            91.5175         estimate D2E/DX2                !
 ! A287  A(1,46,45)             80.9081         estimate D2E/DX2                !
 ! A288  A(1,46,48)             80.4458         estimate D2E/DX2                !
 ! A289  A(3,48,21)             90.5899         estimate D2E/DX2                !
 ! A290  A(3,48,23)             80.2155         estimate D2E/DX2                !
 ! A291  A(3,48,46)             84.1537         estimate D2E/DX2                !
 ! A292  A(3,48,49)            138.0372         estimate D2E/DX2                !
 ! A293  A(3,48,50)            118.9809         estimate D2E/DX2                !
 ! A294  A(21,48,45)           121.3194         estimate D2E/DX2                !
 ! A295  A(21,48,46)            93.5617         estimate D2E/DX2                !
 ! A296  A(21,48,50)           135.3934         estimate D2E/DX2                !
 ! A297  A(23,48,45)           129.5139         estimate D2E/DX2                !
 ! A298  A(23,48,46)           138.6102         estimate D2E/DX2                !
 ! A299  A(23,48,49)            83.3174         estimate D2E/DX2                !
 ! A300  A(23,48,50)           100.8308         estimate D2E/DX2                !
 ! A301  A(45,48,49)           132.5775         estimate D2E/DX2                !
 ! A302  A(45,48,50)           103.1661         estimate D2E/DX2                !
 ! A303  A(46,48,49)            83.2746         estimate D2E/DX2                !
 ! A304  A(46,48,50)           120.2125         estimate D2E/DX2                !
 ! A305  A(49,48,50)           101.8766         estimate D2E/DX2                !
 ! A306  A(14,51,22)            93.4913         estimate D2E/DX2                !
 ! A307  A(14,51,52)            90.1976         estimate D2E/DX2                !
 ! A308  A(14,51,60)           115.8938         estimate D2E/DX2                !
 ! A309  A(14,51,63)           135.9548         estimate D2E/DX2                !
 ! A310  A(22,51,52)           135.2332         estimate D2E/DX2                !
 ! A311  A(22,51,54)           145.4419         estimate D2E/DX2                !
 ! A312  A(22,51,60)           100.7394         estimate D2E/DX2                !
 ! A313  A(52,51,60)           117.4387         estimate D2E/DX2                !
 ! A314  A(52,51,63)            94.0446         estimate D2E/DX2                !
 ! A315  A(54,51,60)            99.6114         estimate D2E/DX2                !
 ! A316  A(54,51,63)           145.9353         estimate D2E/DX2                !
 ! A317  A(60,51,63)           100.7138         estimate D2E/DX2                !
 ! A318  A(12,52,51)            80.2713         estimate D2E/DX2                !
 ! A319  A(12,54,51)            62.3741         estimate D2E/DX2                !
 ! A320  A(12,54,53)           148.1904         estimate D2E/DX2                !
 ! A321  A(12,54,55)            94.0781         estimate D2E/DX2                !
 ! A322  A(12,54,56)            96.0259         estimate D2E/DX2                !
 ! A323  A(12,54,57)           122.2884         estimate D2E/DX2                !
 ! A324  A(14,54,52)            86.2425         estimate D2E/DX2                !
 ! A325  A(14,54,53)           107.7561         estimate D2E/DX2                !
 ! A326  A(14,54,55)           143.2322         estimate D2E/DX2                !
 ! A327  A(14,54,56)            82.7151         estimate D2E/DX2                !
 ! A328  A(14,54,57)           130.8486         estimate D2E/DX2                !
 ! A329  A(51,54,53)            85.835          estimate D2E/DX2                !
 ! A330  A(51,54,55)           134.7124         estimate D2E/DX2                !
 ! A331  A(51,54,56)           131.8959         estimate D2E/DX2                !
 ! A332  A(52,54,53)           106.118          estimate D2E/DX2                !
 ! A333  A(52,54,55)            84.7975         estimate D2E/DX2                !
 ! A334  A(52,54,56)           146.8393         estimate D2E/DX2                !
 ! A335  A(52,54,57)           133.5585         estimate D2E/DX2                !
 ! A336  A(53,54,55)           108.9935         estimate D2E/DX2                !
 ! A337  A(53,54,56)           107.0228         estimate D2E/DX2                !
 ! A338  A(53,54,57)            89.5211         estimate D2E/DX2                !
 ! A339  A(55,54,56)            85.6068         estimate D2E/DX2                !
 ! A340  A(27,55,54)            77.4941         estimate D2E/DX2                !
 ! A341  A(27,55,57)            80.0353         estimate D2E/DX2                !
 ! A342  A(27,56,54)            75.9902         estimate D2E/DX2                !
 ! A343  A(27,56,57)            79.0041         estimate D2E/DX2                !
 ! A344  A(31,57,54)           157.9902         estimate D2E/DX2                !
 ! A345  A(31,57,55)           123.9318         estimate D2E/DX2                !
 ! A346  A(31,57,56)           108.9622         estimate D2E/DX2                !
 ! A347  A(31,57,58)           104.6206         estimate D2E/DX2                !
 ! A348  A(54,57,58)            95.4496         estimate D2E/DX2                !
 ! A349  A(55,57,56)            93.0958         estimate D2E/DX2                !
 ! A350  A(55,57,58)           112.5288         estimate D2E/DX2                !
 ! A351  A(56,57,58)           113.5857         estimate D2E/DX2                !
 ! A352  A(18,62,39)            87.9745         estimate D2E/DX2                !
 ! A353  A(21,63,51)            87.1089         estimate D2E/DX2                !
 ! A354  L(51,54,57,12,-1)     184.6626         estimate D2E/DX2                !
 ! A355  L(51,54,57,12,-2)     177.9918         estimate D2E/DX2                !
 ! D1    D(3,1,2,12)           177.2394         estimate D2E/DX2                !
 ! D2    D(3,1,2,21)            92.3109         estimate D2E/DX2                !
 ! D3    D(4,1,2,12)           -28.6515         estimate D2E/DX2                !
 ! D4    D(4,1,2,21)          -113.58           estimate D2E/DX2                !
 ! D5    D(5,1,2,12)            41.6159         estimate D2E/DX2                !
 ! D6    D(5,1,2,21)           -43.3125         estimate D2E/DX2                !
 ! D7    D(8,1,2,12)           -98.939          estimate D2E/DX2                !
 ! D8    D(8,1,2,21)           176.1325         estimate D2E/DX2                !
 ! D9    D(46,1,2,12)          109.3445         estimate D2E/DX2                !
 ! D10   D(46,1,2,21)           24.4161         estimate D2E/DX2                !
 ! D11   D(2,1,3,45)          -178.318          estimate D2E/DX2                !
 ! D12   D(2,1,3,48)           -96.9111         estimate D2E/DX2                !
 ! D13   D(4,1,3,45)            27.7746         estimate D2E/DX2                !
 ! D14   D(4,1,3,48)           109.1814         estimate D2E/DX2                !
 ! D15   D(5,1,3,45)          -109.1755         estimate D2E/DX2                !
 ! D16   D(5,1,3,48)           -27.7687         estimate D2E/DX2                !
 ! D17   D(8,1,3,45)            98.7054         estimate D2E/DX2                !
 ! D18   D(8,1,3,48)          -179.8877         estimate D2E/DX2                !
 ! D19   D(46,1,3,45)          -39.8295         estimate D2E/DX2                !
 ! D20   D(46,1,3,48)           41.5773         estimate D2E/DX2                !
 ! D21   D(2,1,4,6)           -111.4074         estimate D2E/DX2                !
 ! D22   D(2,1,4,9)            -28.2228         estimate D2E/DX2                !
 ! D23   D(3,1,4,6)             30.1353         estimate D2E/DX2                !
 ! D24   D(3,1,4,9)            113.3199         estimate D2E/DX2                !
 ! D25   D(5,1,4,6)            179.7184         estimate D2E/DX2                !
 ! D26   D(5,1,4,9)            -97.097          estimate D2E/DX2                !
 ! D27   D(8,1,4,6)            -41.1009         estimate D2E/DX2                !
 ! D28   D(8,1,4,9)             42.0837         estimate D2E/DX2                !
 ! D29   D(46,1,4,6)            97.032          estimate D2E/DX2                !
 ! D30   D(46,1,4,9)          -179.7834         estimate D2E/DX2                !
 ! D31   D(2,1,5,12)           -41.6163         estimate D2E/DX2                !
 ! D32   D(2,1,5,21)            43.0032         estimate D2E/DX2                !
 ! D33   D(3,1,5,12)          -111.7931         estimate D2E/DX2                !
 ! D34   D(3,1,5,21)           -27.1736         estimate D2E/DX2                !
 ! D35   D(4,1,5,12)            96.7713         estimate D2E/DX2                !
 ! D36   D(4,1,5,21)          -178.6092         estimate D2E/DX2                !
 ! D37   D(8,1,5,12)            25.4426         estimate D2E/DX2                !
 ! D38   D(8,1,5,21)           110.0621         estimate D2E/DX2                !
 ! D39   D(46,1,5,12)          179.5892         estimate D2E/DX2                !
 ! D40   D(46,1,5,21)          -95.7913         estimate D2E/DX2                !
 ! D41   D(2,1,8,6)            179.3364         estimate D2E/DX2                !
 ! D42   D(2,1,8,9)             96.363          estimate D2E/DX2                !
 ! D43   D(3,1,8,6)            -97.2452         estimate D2E/DX2                !
 ! D44   D(3,1,8,9)            179.7814         estimate D2E/DX2                !
 ! D45   D(4,1,8,6)             41.129          estimate D2E/DX2                !
 ! D46   D(4,1,8,9)            -41.8444         estimate D2E/DX2                !
 ! D47   D(5,1,8,6)            113.0447         estimate D2E/DX2                !
 ! D48   D(5,1,8,9)             30.0713         estimate D2E/DX2                !
 ! D49   D(46,1,8,6)           -29.0424         estimate D2E/DX2                !
 ! D50   D(46,1,8,9)          -112.0158         estimate D2E/DX2                !
 ! D51   D(2,1,46,45)          108.7254         estimate D2E/DX2                !
 ! D52   D(2,1,46,48)           26.8963         estimate D2E/DX2                !
 ! D53   D(3,1,46,45)           39.9058         estimate D2E/DX2                !
 ! D54   D(3,1,46,48)          -41.9234         estimate D2E/DX2                !
 ! D55   D(4,1,46,45)          -99.557          estimate D2E/DX2                !
 ! D56   D(4,1,46,48)          178.6138         estimate D2E/DX2                !
 ! D57   D(5,1,46,45)          175.743          estimate D2E/DX2                !
 ! D58   D(5,1,46,48)           93.9138         estimate D2E/DX2                !
 ! D59   D(8,1,46,45)          -29.3555         estimate D2E/DX2                !
 ! D60   D(8,1,46,48)         -111.1847         estimate D2E/DX2                !
 ! D61   D(1,2,12,5)           -41.6513         estimate D2E/DX2                !
 ! D62   D(1,2,12,11)           27.8925         estimate D2E/DX2                !
 ! D63   D(1,2,12,14)          179.9418         estimate D2E/DX2                !
 ! D64   D(1,2,12,15)           96.6253         estimate D2E/DX2                !
 ! D65   D(1,2,12,52)         -109.1786         estimate D2E/DX2                !
 ! D66   D(1,2,12,54)         -179.8161         estimate D2E/DX2                !
 ! D67   D(21,2,12,5)           40.1395         estimate D2E/DX2                !
 ! D68   D(21,2,12,11)         109.6833         estimate D2E/DX2                !
 ! D69   D(21,2,12,14)         -98.2673         estimate D2E/DX2                !
 ! D70   D(21,2,12,15)         178.4162         estimate D2E/DX2                !
 ! D71   D(21,2,12,52)         -27.3877         estimate D2E/DX2                !
 ! D72   D(21,2,12,54)         -98.0252         estimate D2E/DX2                !
 ! D73   D(1,2,21,5)            43.5236         estimate D2E/DX2                !
 ! D74   D(1,2,21,22)          176.6359         estimate D2E/DX2                !
 ! D75   D(1,2,21,23)          -97.7208         estimate D2E/DX2                !
 ! D76   D(1,2,21,48)          -47.0322         estimate D2E/DX2                !
 ! D77   D(1,2,21,49)          -21.6121         estimate D2E/DX2                !
 ! D78   D(1,2,21,63)          134.833          estimate D2E/DX2                !
 ! D79   D(12,2,21,5)          -40.2944         estimate D2E/DX2                !
 ! D80   D(12,2,21,22)          92.8179         estimate D2E/DX2                !
 ! D81   D(12,2,21,23)         178.4612         estimate D2E/DX2                !
 ! D82   D(12,2,21,48)        -130.8502         estimate D2E/DX2                !
 ! D83   D(12,2,21,49)        -105.43           estimate D2E/DX2                !
 ! D84   D(12,2,21,63)          51.0151         estimate D2E/DX2                !
 ! D85   D(1,3,45,43)          -96.7221         estimate D2E/DX2                !
 ! D86   D(1,3,45,44)          -26.7776         estimate D2E/DX2                !
 ! D87   D(1,3,45,46)           42.1465         estimate D2E/DX2                !
 ! D88   D(1,3,45,47)          154.3523         estimate D2E/DX2                !
 ! D89   D(1,3,48,21)           50.0242         estimate D2E/DX2                !
 ! D90   D(1,3,48,23)           98.0348         estimate D2E/DX2                !
 ! D91   D(1,3,48,46)          -43.4958         estimate D2E/DX2                !
 ! D92   D(1,3,48,49)           29.6505         estimate D2E/DX2                !
 ! D93   D(1,3,48,50)         -164.931          estimate D2E/DX2                !
 ! D94   D(1,4,6,7)            179.2901         estimate D2E/DX2                !
 ! D95   D(1,4,6,8)             40.913          estimate D2E/DX2                !
 ! D96   D(1,4,6,16)           108.832          estimate D2E/DX2                !
 ! D97   D(1,4,6,43)           -34.9453         estimate D2E/DX2                !
 ! D98   D(1,4,6,44)           -95.5666         estimate D2E/DX2                !
 ! D99   D(9,4,6,7)             96.7593         estimate D2E/DX2                !
 ! D100  D(9,4,6,8)            -41.6178         estimate D2E/DX2                !
 ! D101  D(9,4,6,16)            26.3012         estimate D2E/DX2                !
 ! D102  D(9,4,6,43)          -117.4761         estimate D2E/DX2                !
 ! D103  D(9,4,6,44)          -178.0974         estimate D2E/DX2                !
 ! D104  D(1,4,9,8)            -41.4247         estimate D2E/DX2                !
 ! D105  D(1,4,9,10)          -177.9996         estimate D2E/DX2                !
 ! D106  D(1,4,9,11)            96.1918         estimate D2E/DX2                !
 ! D107  D(1,4,9,15)            30.3951         estimate D2E/DX2                !
 ! D108  D(1,4,9,26)          -110.6381         estimate D2E/DX2                !
 ! D109  D(6,4,9,8)             41.1576         estimate D2E/DX2                !
 ! D110  D(6,4,9,10)           -95.4173         estimate D2E/DX2                !
 ! D111  D(6,4,9,11)           178.7741         estimate D2E/DX2                !
 ! D112  D(6,4,9,15)           112.9774         estimate D2E/DX2                !
 ! D113  D(6,4,9,26)           -28.0559         estimate D2E/DX2                !
 ! D114  D(1,5,12,2)            41.8437         estimate D2E/DX2                !
 ! D115  D(1,5,12,11)          -94.6763         estimate D2E/DX2                !
 ! D116  D(1,5,12,14)          111.3947         estimate D2E/DX2                !
 ! D117  D(1,5,12,15)          -26.3453         estimate D2E/DX2                !
 ! D118  D(1,5,12,52)          179.5218         estimate D2E/DX2                !
 ! D119  D(1,5,12,54)         -178.4322         estimate D2E/DX2                !
 ! D120  D(21,5,12,2)          -39.878          estimate D2E/DX2                !
 ! D121  D(21,5,12,11)        -176.3979         estimate D2E/DX2                !
 ! D122  D(21,5,12,14)          29.6731         estimate D2E/DX2                !
 ! D123  D(21,5,12,15)        -108.0669         estimate D2E/DX2                !
 ! D124  D(21,5,12,52)          97.8002         estimate D2E/DX2                !
 ! D125  D(21,5,12,54)          99.8461         estimate D2E/DX2                !
 ! D126  D(1,5,21,2)           -43.7685         estimate D2E/DX2                !
 ! D127  D(1,5,21,22)         -130.5553         estimate D2E/DX2                !
 ! D128  D(1,5,21,23)           28.4575         estimate D2E/DX2                !
 ! D129  D(1,5,21,48)           50.6992         estimate D2E/DX2                !
 ! D130  D(1,5,21,49)           99.7892         estimate D2E/DX2                !
 ! D131  D(1,5,21,63)         -176.1942         estimate D2E/DX2                !
 ! D132  D(12,5,21,2)           40.3453         estimate D2E/DX2                !
 ! D133  D(12,5,21,22)         -46.4416         estimate D2E/DX2                !
 ! D134  D(12,5,21,23)         112.5712         estimate D2E/DX2                !
 ! D135  D(12,5,21,48)         134.813          estimate D2E/DX2                !
 ! D136  D(12,5,21,49)        -176.097          estimate D2E/DX2                !
 ! D137  D(12,5,21,63)         -92.0805         estimate D2E/DX2                !
 ! D138  D(4,6,7,13)           -96.7353         estimate D2E/DX2                !
 ! D139  D(4,6,7,18)           179.9638         estimate D2E/DX2                !
 ! D140  D(8,6,7,13)           -24.8856         estimate D2E/DX2                !
 ! D141  D(8,6,7,18)          -108.1866         estimate D2E/DX2                !
 ! D142  D(16,6,7,13)           41.3352         estimate D2E/DX2                !
 ! D143  D(16,6,7,18)          -41.9658         estimate D2E/DX2                !
 ! D144  D(43,6,7,13)          114.3091         estimate D2E/DX2                !
 ! D145  D(43,6,7,18)           31.0082         estimate D2E/DX2                !
 ! D146  D(44,6,7,13)         -177.8626         estimate D2E/DX2                !
 ! D147  D(44,6,7,18)           98.8364         estimate D2E/DX2                !
 ! D148  D(4,6,8,1)            -41.231          estimate D2E/DX2                !
 ! D149  D(4,6,8,9)             41.4186         estimate D2E/DX2                !
 ! D150  D(7,6,8,1)           -113.847          estimate D2E/DX2                !
 ! D151  D(7,6,8,9)            -31.1974         estimate D2E/DX2                !
 ! D152  D(16,6,8,1)           179.8689         estimate D2E/DX2                !
 ! D153  D(16,6,8,9)           -97.4816         estimate D2E/DX2                !
 ! D154  D(43,6,8,1)            96.0628         estimate D2E/DX2                !
 ! D155  D(43,6,8,9)           178.7124         estimate D2E/DX2                !
 ! D156  D(44,6,8,1)            27.7539         estimate D2E/DX2                !
 ! D157  D(44,6,8,9)           110.4034         estimate D2E/DX2                !
 ! D158  D(4,6,16,13)           30.3884         estimate D2E/DX2                !
 ! D159  D(4,6,16,18)          114.0353         estimate D2E/DX2                !
 ! D160  D(7,6,16,13)          -41.2742         estimate D2E/DX2                !
 ! D161  D(7,6,16,18)           42.3727         estimate D2E/DX2                !
 ! D162  D(8,6,16,13)           98.7957         estimate D2E/DX2                !
 ! D163  D(8,6,16,18)         -177.5574         estimate D2E/DX2                !
 ! D164  D(43,6,16,13)        -174.1432         estimate D2E/DX2                !
 ! D165  D(43,6,16,18)         -90.4962         estimate D2E/DX2                !
 ! D166  D(44,6,16,13)        -111.9155         estimate D2E/DX2                !
 ! D167  D(44,6,16,18)         -28.2685         estimate D2E/DX2                !
 ! D168  D(4,6,43,42)         -105.1322         estimate D2E/DX2                !
 ! D169  D(4,6,43,45)          -18.1859         estimate D2E/DX2                !
 ! D170  D(7,6,43,42)           27.5571         estimate D2E/DX2                !
 ! D171  D(7,6,43,45)          114.5033         estimate D2E/DX2                !
 ! D172  D(8,6,43,42)         -179.4075         estimate D2E/DX2                !
 ! D173  D(8,6,43,45)          -92.4612         estimate D2E/DX2                !
 ! D174  D(16,6,43,42)          99.4877         estimate D2E/DX2                !
 ! D175  D(16,6,43,45)        -173.5661         estimate D2E/DX2                !
 ! D176  D(44,6,43,42)         -43.3073         estimate D2E/DX2                !
 ! D177  D(44,6,43,45)          43.639          estimate D2E/DX2                !
 ! D178  D(4,6,44,42)         -173.2964         estimate D2E/DX2                !
 ! D179  D(4,6,44,45)           97.7993         estimate D2E/DX2                !
 ! D180  D(7,6,44,42)          -88.4453         estimate D2E/DX2                !
 ! D181  D(7,6,44,45)         -177.3497         estimate D2E/DX2                !
 ! D182  D(8,6,44,42)          117.1574         estimate D2E/DX2                !
 ! D183  D(8,6,44,45)           28.253          estimate D2E/DX2                !
 ! D184  D(16,6,44,42)         -19.0124         estimate D2E/DX2                !
 ! D185  D(16,6,44,45)        -107.9167         estimate D2E/DX2                !
 ! D186  D(43,6,44,42)          45.2705         estimate D2E/DX2                !
 ! D187  D(43,6,44,45)         -43.6339         estimate D2E/DX2                !
 ! D188  D(6,7,13,10)           95.1685         estimate D2E/DX2                !
 ! D189  D(6,7,13,16)          -41.4564         estimate D2E/DX2                !
 ! D190  D(6,7,13,26)           26.6621         estimate D2E/DX2                !
 ! D191  D(6,7,13,37)          178.847          estimate D2E/DX2                !
 ! D192  D(6,7,13,38)         -111.7643         estimate D2E/DX2                !
 ! D193  D(18,7,13,10)         176.3332         estimate D2E/DX2                !
 ! D194  D(18,7,13,16)          39.7084         estimate D2E/DX2                !
 ! D195  D(18,7,13,26)         107.8269         estimate D2E/DX2                !
 ! D196  D(18,7,13,37)         -99.9882         estimate D2E/DX2                !
 ! D197  D(18,7,13,38)         -30.5996         estimate D2E/DX2                !
 ! D198  D(6,7,18,16)           43.0469         estimate D2E/DX2                !
 ! D199  D(6,7,18,19)         -100.2958         estimate D2E/DX2                !
 ! D200  D(6,7,18,20)          -35.9381         estimate D2E/DX2                !
 ! D201  D(6,7,18,40)          175.8067         estimate D2E/DX2                !
 ! D202  D(6,7,18,42)          -54.6455         estimate D2E/DX2                !
 ! D203  D(6,7,18,62)          133.3736         estimate D2E/DX2                !
 ! D204  D(13,7,18,16)         -40.5873         estimate D2E/DX2                !
 ! D205  D(13,7,18,19)         176.07           estimate D2E/DX2                !
 ! D206  D(13,7,18,20)        -119.5723         estimate D2E/DX2                !
 ! D207  D(13,7,18,40)          92.1725         estimate D2E/DX2                !
 ! D208  D(13,7,18,42)        -138.2797         estimate D2E/DX2                !
 ! D209  D(13,7,18,62)          49.7394         estimate D2E/DX2                !
 ! D210  D(1,8,9,4)             41.787          estimate D2E/DX2                !
 ! D211  D(1,8,9,10)           111.383          estimate D2E/DX2                !
 ! D212  D(1,8,9,11)           -27.2323         estimate D2E/DX2                !
 ! D213  D(1,8,9,15)           -95.9717         estimate D2E/DX2                !
 ! D214  D(1,8,9,26)          -179.8711         estimate D2E/DX2                !
 ! D215  D(6,8,9,4)            -41.2595         estimate D2E/DX2                !
 ! D216  D(6,8,9,10)            28.3366         estimate D2E/DX2                !
 ! D217  D(6,8,9,11)          -110.2788         estimate D2E/DX2                !
 ! D218  D(6,8,9,15)          -179.0182         estimate D2E/DX2                !
 ! D219  D(6,8,9,26)            97.0824         estimate D2E/DX2                !
 ! D220  D(4,9,10,13)           97.8367         estimate D2E/DX2                !
 ! D221  D(4,9,10,24)         -178.7813         estimate D2E/DX2                !
 ! D222  D(8,9,10,13)           28.4394         estimate D2E/DX2                !
 ! D223  D(8,9,10,24)          111.8214         estimate D2E/DX2                !
 ! D224  D(11,9,10,13)        -179.871          estimate D2E/DX2                !
 ! D225  D(11,9,10,24)         -96.489          estimate D2E/DX2                !
 ! D226  D(15,9,10,13)        -110.7541         estimate D2E/DX2                !
 ! D227  D(15,9,10,24)         -27.3721         estimate D2E/DX2                !
 ! D228  D(26,9,10,13)         -40.9417         estimate D2E/DX2                !
 ! D229  D(26,9,10,24)          42.4402         estimate D2E/DX2                !
 ! D230  D(4,9,11,12)          -98.0587         estimate D2E/DX2                !
 ! D231  D(4,9,11,27)          179.2202         estimate D2E/DX2                !
 ! D232  D(8,9,11,12)          -29.2128         estimate D2E/DX2                !
 ! D233  D(8,9,11,27)         -111.9339         estimate D2E/DX2                !
 ! D234  D(10,9,11,12)         179.5931         estimate D2E/DX2                !
 ! D235  D(10,9,11,27)          96.872          estimate D2E/DX2                !
 ! D236  D(15,9,11,12)          41.2121         estimate D2E/DX2                !
 ! D237  D(15,9,11,27)         -41.509          estimate D2E/DX2                !
 ! D238  D(26,9,11,12)         109.4202         estimate D2E/DX2                !
 ! D239  D(26,9,11,27)          26.699          estimate D2E/DX2                !
 ! D240  D(4,9,15,12)           25.3344         estimate D2E/DX2                !
 ! D241  D(4,9,15,27)          108.1139         estimate D2E/DX2                !
 ! D242  D(8,9,15,12)           96.1378         estimate D2E/DX2                !
 ! D243  D(8,9,15,27)          178.9173         estimate D2E/DX2                !
 ! D244  D(10,9,15,12)        -112.3549         estimate D2E/DX2                !
 ! D245  D(10,9,15,27)         -29.5754         estimate D2E/DX2                !
 ! D246  D(11,9,15,12)         -41.2567         estimate D2E/DX2                !
 ! D247  D(11,9,15,27)          41.5229         estimate D2E/DX2                !
 ! D248  D(26,9,15,12)         178.8463         estimate D2E/DX2                !
 ! D249  D(26,9,15,27)         -98.3742         estimate D2E/DX2                !
 ! D250  D(4,9,26,13)          -27.2465         estimate D2E/DX2                !
 ! D251  D(4,9,26,24)         -110.1121         estimate D2E/DX2                !
 ! D252  D(8,9,26,13)          -96.1264         estimate D2E/DX2                !
 ! D253  D(8,9,26,24)         -178.9919         estimate D2E/DX2                !
 ! D254  D(10,9,26,13)          40.5749         estimate D2E/DX2                !
 ! D255  D(10,9,26,24)         -42.2906         estimate D2E/DX2                !
 ! D256  D(11,9,26,13)         112.3384         estimate D2E/DX2                !
 ! D257  D(11,9,26,24)          29.4728         estimate D2E/DX2                !
 ! D258  D(15,9,26,13)         179.213          estimate D2E/DX2                !
 ! D259  D(15,9,26,24)          96.3475         estimate D2E/DX2                !
 ! D260  D(9,10,13,7)          -97.5448         estimate D2E/DX2                !
 ! D261  D(9,10,13,16)         -27.8162         estimate D2E/DX2                !
 ! D262  D(9,10,13,26)          40.9255         estimate D2E/DX2                !
 ! D263  D(9,10,13,37)         179.5159         estimate D2E/DX2                !
 ! D264  D(9,10,13,38)         109.5054         estimate D2E/DX2                !
 ! D265  D(24,10,13,7)        -179.4221         estimate D2E/DX2                !
 ! D266  D(24,10,13,16)       -109.6935         estimate D2E/DX2                !
 ! D267  D(24,10,13,26)        -40.9519         estimate D2E/DX2                !
 ! D268  D(24,10,13,37)         97.6385         estimate D2E/DX2                !
 ! D269  D(24,10,13,38)         27.6281         estimate D2E/DX2                !
 ! D270  D(9,10,24,17)        -113.6477         estimate D2E/DX2                !
 ! D271  D(9,10,24,25)         179.3572         estimate D2E/DX2                !
 ! D272  D(9,10,24,26)         -42.9641         estimate D2E/DX2                !
 ! D273  D(9,10,24,28)          94.852          estimate D2E/DX2                !
 ! D274  D(9,10,24,29)          30.2456         estimate D2E/DX2                !
 ! D275  D(13,10,24,17)        -29.2181         estimate D2E/DX2                !
 ! D276  D(13,10,24,25)        -96.2133         estimate D2E/DX2                !
 ! D277  D(13,10,24,26)         41.4654         estimate D2E/DX2                !
 ! D278  D(13,10,24,28)        179.2816         estimate D2E/DX2                !
 ! D279  D(13,10,24,29)        114.6752         estimate D2E/DX2                !
 ! D280  D(9,11,12,2)           27.5796         estimate D2E/DX2                !
 ! D281  D(9,11,12,5)           96.413          estimate D2E/DX2                !
 ! D282  D(9,11,12,14)        -110.1356         estimate D2E/DX2                !
 ! D283  D(9,11,12,15)         -41.6441         estimate D2E/DX2                !
 ! D284  D(9,11,12,52)         178.0846         estimate D2E/DX2                !
 ! D285  D(9,11,12,54)        -132.4544         estimate D2E/DX2                !
 ! D286  D(27,11,12,2)         111.697          estimate D2E/DX2                !
 ! D287  D(27,11,12,5)        -179.4697         estimate D2E/DX2                !
 ! D288  D(27,11,12,14)        -26.0182         estimate D2E/DX2                !
 ! D289  D(27,11,12,15)         42.4732         estimate D2E/DX2                !
 ! D290  D(27,11,12,52)        -97.798          estimate D2E/DX2                !
 ! D291  D(27,11,12,54)        -48.337          estimate D2E/DX2                !
 ! D292  D(9,11,27,15)          41.9008         estimate D2E/DX2                !
 ! D293  D(9,11,27,28)         -93.6349         estimate D2E/DX2                !
 ! D294  D(9,11,27,29)         -26.9919         estimate D2E/DX2                !
 ! D295  D(9,11,27,30)         -94.5671         estimate D2E/DX2                !
 ! D296  D(9,11,27,55)        -178.7166         estimate D2E/DX2                !
 ! D297  D(9,11,27,56)         113.589          estimate D2E/DX2                !
 ! D298  D(12,11,27,15)        -42.4275         estimate D2E/DX2                !
 ! D299  D(12,11,27,28)       -177.9633         estimate D2E/DX2                !
 ! D300  D(12,11,27,29)       -111.3203         estimate D2E/DX2                !
 ! D301  D(12,11,27,30)       -178.8955         estimate D2E/DX2                !
 ! D302  D(12,11,27,55)         96.955          estimate D2E/DX2                !
 ! D303  D(12,11,27,56)         29.2606         estimate D2E/DX2                !
 ! D304  D(2,12,14,51)          99.9497         estimate D2E/DX2                !
 ! D305  D(5,12,14,51)          31.3566         estimate D2E/DX2                !
 ! D306  D(11,12,14,51)       -109.6077         estimate D2E/DX2                !
 ! D307  D(15,12,14,51)       -177.4183         estimate D2E/DX2                !
 ! D308  D(52,12,14,51)        -36.6069         estimate D2E/DX2                !
 ! D309  D(2,12,15,9)          -94.9683         estimate D2E/DX2                !
 ! D310  D(2,12,15,27)        -179.0656         estimate D2E/DX2                !
 ! D311  D(5,12,15,9)          -27.3221         estimate D2E/DX2                !
 ! D312  D(5,12,15,27)        -111.4194         estimate D2E/DX2                !
 ! D313  D(11,12,15,9)          41.6185         estimate D2E/DX2                !
 ! D314  D(11,12,15,27)        -42.4788         estimate D2E/DX2                !
 ! D315  D(14,12,15,9)        -178.8347         estimate D2E/DX2                !
 ! D316  D(14,12,15,27)         97.068          estimate D2E/DX2                !
 ! D317  D(52,12,15,9)         112.8079         estimate D2E/DX2                !
 ! D318  D(52,12,15,27)         28.7106         estimate D2E/DX2                !
 ! D319  D(54,12,15,9)         131.9012         estimate D2E/DX2                !
 ! D320  D(54,12,15,27)         47.8039         estimate D2E/DX2                !
 ! D321  D(2,12,52,51)         -35.0737         estimate D2E/DX2                !
 ! D322  D(5,12,52,51)        -102.3463         estimate D2E/DX2                !
 ! D323  D(11,12,52,51)        174.773          estimate D2E/DX2                !
 ! D324  D(14,12,52,51)         36.3756         estimate D2E/DX2                !
 ! D325  D(15,12,52,51)        105.07           estimate D2E/DX2                !
 ! D326  D(2,12,54,51)          58.1666         estimate D2E/DX2                !
 ! D327  D(2,12,54,53)          60.3028         estimate D2E/DX2                !
 ! D328  D(2,12,54,55)        -162.4767         estimate D2E/DX2                !
 ! D329  D(2,12,54,56)         -76.4732         estimate D2E/DX2                !
 ! D330  D(2,12,54,57)        -119.8252         estimate D2E/DX2                !
 ! D331  D(5,12,54,51)         -61.6056         estimate D2E/DX2                !
 ! D332  D(5,12,54,53)         -59.4694         estimate D2E/DX2                !
 ! D333  D(5,12,54,55)          77.7511         estimate D2E/DX2                !
 ! D334  D(5,12,54,56)         163.7546         estimate D2E/DX2                !
 ! D335  D(5,12,54,57)         120.4026         estimate D2E/DX2                !
 ! D336  D(11,12,54,51)       -141.607          estimate D2E/DX2                !
 ! D337  D(11,12,54,53)       -139.4708         estimate D2E/DX2                !
 ! D338  D(11,12,54,55)         -2.2503         estimate D2E/DX2                !
 ! D339  D(11,12,54,56)         83.7532         estimate D2E/DX2                !
 ! D340  D(11,12,54,57)         40.4012         estimate D2E/DX2                !
 ! D341  D(15,12,54,51)        137.7965         estimate D2E/DX2                !
 ! D342  D(15,12,54,53)        139.9327         estimate D2E/DX2                !
 ! D343  D(15,12,54,55)        -82.8468         estimate D2E/DX2                !
 ! D344  D(15,12,54,56)          3.1567         estimate D2E/DX2                !
 ! D345  D(15,12,54,57)        -40.1953         estimate D2E/DX2                !
 ! D346  D(7,13,16,6)           41.5154         estimate D2E/DX2                !
 ! D347  D(7,13,16,18)         -40.1092         estimate D2E/DX2                !
 ! D348  D(10,13,16,6)         -28.3944         estimate D2E/DX2                !
 ! D349  D(10,13,16,18)       -110.019          estimate D2E/DX2                !
 ! D350  D(26,13,16,6)         -97.1026         estimate D2E/DX2                !
 ! D351  D(26,13,16,18)       -178.7272         estimate D2E/DX2                !
 ! D352  D(37,13,16,6)         110.1492         estimate D2E/DX2                !
 ! D353  D(37,13,16,18)         28.5245         estimate D2E/DX2                !
 ! D354  D(38,13,16,6)         179.9907         estimate D2E/DX2                !
 ! D355  D(38,13,16,18)         98.3661         estimate D2E/DX2                !
 ! D356  D(7,13,26,9)           27.7029         estimate D2E/DX2                !
 ! D357  D(7,13,26,24)         109.6449         estimate D2E/DX2                !
 ! D358  D(10,13,26,9)         -41.0703         estimate D2E/DX2                !
 ! D359  D(10,13,26,24)         40.8717         estimate D2E/DX2                !
 ! D360  D(16,13,26,9)          95.883          estimate D2E/DX2                !
 ! D361  D(16,13,26,24)        177.8249         estimate D2E/DX2                !
 ! D362  D(37,13,26,9)        -110.9044         estimate D2E/DX2                !
 ! D363  D(37,13,26,24)        -28.9625         estimate D2E/DX2                !
 ! D364  D(38,13,26,9)         179.7865         estimate D2E/DX2                !
 ! D365  D(38,13,26,24)        -98.2716         estimate D2E/DX2                !
 ! D366  D(7,13,37,36)         178.8411         estimate D2E/DX2                !
 ! D367  D(7,13,37,39)         102.2195         estimate D2E/DX2                !
 ! D368  D(10,13,37,36)        -98.444          estimate D2E/DX2                !
 ! D369  D(10,13,37,39)       -175.0656         estimate D2E/DX2                !
 ! D370  D(16,13,37,36)        110.4483         estimate D2E/DX2                !
 ! D371  D(16,13,37,39)         33.8268         estimate D2E/DX2                !
 ! D372  D(26,13,37,36)        -29.1977         estimate D2E/DX2                !
 ! D373  D(26,13,37,39)       -105.8192         estimate D2E/DX2                !
 ! D374  D(38,13,37,36)         40.1987         estimate D2E/DX2                !
 ! D375  D(38,13,37,39)        -36.4228         estimate D2E/DX2                !
 ! D376  D(7,13,38,36)        -109.7722         estimate D2E/DX2                !
 ! D377  D(7,13,38,39)         -32.7417         estimate D2E/DX2                !
 ! D378  D(10,13,38,36)         30.1085         estimate D2E/DX2                !
 ! D379  D(10,13,38,39)        107.1389         estimate D2E/DX2                !
 ! D380  D(16,13,38,36)       -179.533          estimate D2E/DX2                !
 ! D381  D(16,13,38,39)       -102.5025         estimate D2E/DX2                !
 ! D382  D(26,13,38,36)         98.3818         estimate D2E/DX2                !
 ! D383  D(26,13,38,39)        175.4123         estimate D2E/DX2                !
 ! D384  D(37,13,38,36)        -40.2655         estimate D2E/DX2                !
 ! D385  D(37,13,38,39)         36.7649         estimate D2E/DX2                !
 ! D386  D(12,14,51,22)        -95.6409         estimate D2E/DX2                !
 ! D387  D(12,14,51,52)         39.7173         estimate D2E/DX2                !
 ! D388  D(12,14,51,60)        160.6413         estimate D2E/DX2                !
 ! D389  D(12,14,51,63)        -56.3109         estimate D2E/DX2                !
 ! D390  D(9,15,27,11)         -41.8785         estimate D2E/DX2                !
 ! D391  D(9,15,27,28)          25.8802         estimate D2E/DX2                !
 ! D392  D(9,15,27,29)          95.8536         estimate D2E/DX2                !
 ! D393  D(9,15,27,30)          92.5075         estimate D2E/DX2                !
 ! D394  D(9,15,27,55)        -111.0101         estimate D2E/DX2                !
 ! D395  D(9,15,27,56)         179.3099         estimate D2E/DX2                !
 ! D396  D(12,15,27,11)         42.469          estimate D2E/DX2                !
 ! D397  D(12,15,27,28)        110.2277         estimate D2E/DX2                !
 ! D398  D(12,15,27,29)       -179.7989         estimate D2E/DX2                !
 ! D399  D(12,15,27,30)        176.855          estimate D2E/DX2                !
 ! D400  D(12,15,27,55)        -26.6626         estimate D2E/DX2                !
 ! D401  D(12,15,27,56)        -96.3426         estimate D2E/DX2                !
 ! D402  D(6,16,18,7)          -43.0316         estimate D2E/DX2                !
 ! D403  D(6,16,18,19)          22.3916         estimate D2E/DX2                !
 ! D404  D(6,16,18,20)          96.5779         estimate D2E/DX2                !
[...]
 00138526,0.00040739,0.00000834,-0.00028578,-0.00066490,0.00009673,-0.0
 0001989,-0.00015984,-0.00001098,-0.00010284,0.00003315,0.00000966,0.00
 004653,0.00002799,-0.00002849,0.00001960,-0.00001089,0.00000400,-0.000
 03365,0.00000817,-0.00000687,-0.00013741,0.00006848,-0.00013557,0.0000
 0513,0.00000738,0.00000856,0.00001535,-0.00000065,0.00000731,0.0001322
 4,-0.00003495,0.00005878,-0.00002416,0.00000547,0.00001680,-0.00044200
 ,0.00210482,0.00086669,0.00226244,0.00018005,0.00465172,-0.00223309,0.
 00011144,0.00065157,-0.00004204,-0.00009603,-0.00001461,-0.00001101,-0
 .00001786,-0.00000382,-0.00011233,-0.00006352,-0.00000746,0.00000508,-
 0.00003104,0.00002611,-0.00000796,0.00000887,-0.00000949,0.00003353,0.
 00000038,-0.00000187,-0.00004668,0.00002293,-0.00002814,0.00000571,-0.
 00000026,-0.00000679,0.00001097,-0.00000091,-0.00000889,0.00002927,0.0
 0000501,0.00002098,-0.00002999,0.00000721,-0.00002170,-0.00004145,-0.0
 0000502,-0.00002399,0.00009084,0.00004715,-0.00005490,-0.00000712,0.00
 000287,0.00000653,0.00001175,-0.00004345,0.00005824,-0.00002256,0.0000
 0770,-0.00008003,0.00005500,0.00000846,-0.00000381,-0.00003759,-0.0000
 6397,0.00004132,0.00007486,0.00013525,-0.00012396,-0.00007834,-0.00002
 739,0.00027620,0.00003699,-0.00006692,0.00006862,-0.05910447,-0.039062
 32,0.03858944,-0.00093373,0.00055002,0.00121273,-0.00114538,0.00413633
 ,-0.00050461,0.00009329,-0.00112861,0.00161313,0.00010611,-0.00040911,
 -0.00030877,0.00211549,0.00047247,-0.00062745,0.00004779,0.00006660,0.
 00009946,0.00007762,0.00000107,-0.00005018,0.00010070,0.00003711,-0.00
 013625,0.00004482,-0.00002331,0.00002199,-0.00000199,-0.00001109,0.000
 00743,-0.00003786,0.00000772,-0.00000230,0.00005604,0.00000798,-0.0000
 2251,-0.00000275,-0.00000620,0.00000104,-0.00000525,0.00000490,0.00000
 847,0.00005187,-0.00003485,0.00001246,-0.00005453,0.00001249,0.0000039
 1,0.00000118,-0.00003702,0.00005156,-0.00004999,0.00001937,-0.00001747
 ,0.06090966,0.03315263,0.00008695,-0.00019407,0.00030129,-0.00000548,0
 .00002113,-0.00003127,-0.00022986,-0.00043581,-0.00041006,-0.00014516,
 -0.00011664,-0.00011145,-0.00001242,0.00002896,-0.00003636,0.00213452,
 0.00051523,0.00025640,-0.00034117,0.00025429,0.00038141,0.00009001,0.0
 0010298,0.00002487,0.00021293,-0.00002856,0.00003957,-0.00006688,-0.00
 004677,0.00003697,-0.00003015,0.00000780,0.00000155,0.00007801,-0.0000
 0118,-0.00001030,0.00023643,0.00008645,-0.00007594,-0.00000941,-0.0000
 1088,-0.00001518,-0.00002851,0.00000297,-0.00000288,-0.00011680,0.0000
 3580,0.00002491,0.00003918,-0.00000864,-0.00002043,0.00051711,-0.00141
 280,-0.00039584,0.00499532,0.00159945,-0.00971200,-0.00044020,0.002306
 00,0.00088672,0.00002782,0.00004403,-0.00007028,0.00002059,0.00001800,
 0.00000850,0.00001933,0.00001626,0.00002402,-0.00003564,0.00002204,-0.
 00003061,0.00002069,0.00001168,0.00001042,-0.00003827,-0.00001551,0.00
 003920,0.00008099,-0.00004425,0.00002672,-0.00000854,0.00000080,0.0000
 1667,-0.00001961,-0.00000012,0.00002127,-0.00003917,0.00000373,-0.0000
 1941,0.00004062,-0.00000563,0.00002409,0.00006295,0.00001134,0.0000355
 0,-0.00012952,-0.00009798,0.00010311,0.00000430,-0.00000567,-0.0000241
 8,-0.00002165,0.00007499,-0.00009644,0.00001525,-0.00006881,0.00008280
 ,0.00000328,0.00001451,0.00003181,-0.00006005,0.00000367,-0.00005276,0
 .00001073,-0.00006417,0.00021859,-0.00011938,-0.00018745,-0.00022520,-
 0.00007128,0.00010593,-0.00015717,0.10372608,0.04457809,-0.08983410,0.
 00211664,0.00137313,0.00255404,0.00255290,-0.00287683,-0.00039983,0.00
 042866,0.00064054,-0.00275371,0.00007990,0.00042962,0.00034813,-0.0031
 1003,-0.00065954,0.00173672,-0.00001002,0.00006476,-0.00006082,0.00002
 125,-0.00006734,-0.00002417,-0.00018985,-0.00010455,0.00018319,-0.0000
 9785,0.00003404,-0.00002886,-0.00000047,0.00002328,0.00000118,0.000076
 13,-0.00002098,0.00001308,-0.00010593,0.00000915,0.00001002,0.00000155
 ,0.00001001,0.00000061,0.00000922,-0.00001063,-0.00001118,-0.00009752,
 0.00004760,-0.00000198,0.00010063,-0.00002316,-0.00000646,-0.00000682,
 0.00007390,-0.00010087,0.00010752,-0.00004075,0.00003640,-0.11232429,-
 0.04629429,0.09738152,0.00002000,-0.00002582,-0.00002274,0.00000167,0.
 00000318,-0.00000110,0.00000926,0.00000868,-0.00001443,-0.00004606,-0.
 00008870,0.00004585,-0.00000721,-0.00000311,-0.00000175,0.00061625,-0.
 00012317,0.00020167,-0.00062100,-0.00091835,-0.00068202,0.00003349,-0.
 00010362,0.00010228,0.00012768,0.00004278,-0.00004792,-0.00006677,0.00
 000229,0.00004606,0.00000033,-0.00001107,0.00002772,0.00002881,0.00000
 199,0.00000439,-0.00052594,0.00411948,0.00142118,-0.00000055,-0.000006
 32,0.00000205,-0.00002275,-0.00001222,0.00002240,-0.00189141,-0.000943
 10,-0.00314549,-0.00015526,-0.00001925,-0.00032880,-0.01606909,0.02045
 318,-0.00315409,0.00126951,0.00096248,-0.00159501,-0.00086731,-0.00345
 139,0.00113397,-0.00000634,-0.00000537,-0.00000785,0.00000757,0.000002
 20,0.00000048,-0.00000715,-0.00000004,0.00000189,-0.00014489,-0.000039
 89,0.00016592,-0.00004021,0.00013905,-0.00000450,0.00036157,-0.0001132
 4,0.00012259,0.00000521,0.00000841,-0.00005607,-0.00000443,0.00000059,
 0.00001660,-0.00003424,-0.00002463,0.00000714,0.00001911,-0.00001655,0
 .00001089,-0.00002637,0.00001552,-0.00001728,-0.00005337,0.00003520,-0
 .00004275,0.00030231,0.00001290,0.00006420,-0.00005256,-0.00003346,-0.
 00003100,-0.00003616,0.00004980,-0.00035616,0.00031570,0.00025543,0.00
 033059,-0.00239288,0.00103008,-0.00066871,-0.00541135,-0.00191393,0.00
 179770,-0.03235144,0.00787326,0.03169941,-0.00025827,-0.02390609,-0.01
 797998,0.00115113,-0.00251114,0.00045459,0.00205926,0.00091500,0.00131
 326,0.00028185,0.00000445,0.00010717,-0.00021035,0.00000032,-0.0001412
 8,-0.00010471,0.00017536,-0.00019947,-0.00000482,0.00002332,-0.0000091
 5,-0.00008147,-0.00000266,0.00007986,0.00001402,0.00000479,0.00000233,
 0.00000411,0.00000051,0.00000307,-0.00001227,-0.00000611,0.00001228,-0
 .00001148,-0.00000661,0.00001093,0.00000045,0.00000077,0.00000785,0.00
 000246,-0.00000739,0.00001072,-0.00000430,0.00002227,-0.00003409,-0.00
 000406,-0.00000358,0.00000722,-0.00000018,-0.00000048,0.00000580,0.000
 00133,-0.00002160,0.00002573,-0.00000848,0.00000161,-0.00000139,-0.000
 01390,0.00000043,0.00000848,0.00000856,-0.00000393,0.00000404,-0.00012
 027,0.00006754,-0.00002092,0.05502146,0.00007610,0.00000027,-0.0000063
 1,-0.00003013,0.00000336,0.00000687,0.00001618,0.00001606,-0.00002734,
 -0.00004623,0.00024300,0.00017844,0.00000740,-0.00002660,-0.00000076,0
 .00016598,-0.00183722,-0.00109220,0.00126388,-0.00111463,0.00050817,0.
 00004466,0.00070473,0.00015315,0.00009693,-0.00004507,0.00016195,0.000
 11694,0.00009054,0.00006029,-0.00000846,-0.00002476,0.00002332,0.00005
 924,0.00001021,-0.00002603,-0.00095262,-0.00091723,-0.00178641,-0.0000
 0327,-0.00001891,0.00000467,-0.00002219,-0.00000420,0.00001897,0.00012
 998,0.00313492,-0.00065003,-0.00012004,0.00001425,0.00018197,0.0185478
 7,-0.05606741,0.02152357,0.00001682,-0.00038321,0.00089295,-0.00112714
 ,0.00284710,0.00157132,-0.00001581,0.00001295,-0.00001481,0.00002056,0
 .00000810,-0.00000124,0.00000904,0.00000536,0.00000840,0.00011237,0.00
 002176,-0.00000137,-0.00026117,0.00018357,-0.00003690,0.00000355,-0.00
 024910,-0.00022461,0.00002751,0.00003721,-0.00003315,0.00000826,0.0000
 1196,0.00002104,-0.00001854,-0.00004555,0.00003521,0.00009884,-0.00001
 166,0.00007335,-0.00005058,0.00003720,-0.00005827,-0.00013029,0.000033
 23,-0.00003289,0.00031167,0.00004880,-0.00006714,-0.00003800,-0.000011
 91,-0.00006271,0.00011912,0.00041532,-0.00010855,-0.00152438,-0.000320
 31,-0.00008259,0.00055680,0.00189288,0.00003698,-0.00148032,0.00227488
 ,0.00332416,0.01101728,-0.01463035,-0.00907901,-0.02292395,-0.08877978
 ,-0.06161887,-0.00214255,0.00203998,0.00156031,0.00133314,-0.00179024,
 -0.00034031,-0.00008498,0.00063395,0.00025249,-0.00069714,0.00052502,0
 .00001903,-0.00002523,-0.00000665,-0.00033708,-0.00006223,0.00001207,0
 .00004462,-0.00010086,-0.00002636,0.00006355,0.00001700,0.00003551,-0.
 00005804,0.00000128,-0.00001181,0.00000691,-0.00003539,-0.00002518,0.0
 0004991,-0.00004785,-0.00000556,0.00001952,0.00000398,0.00000581,0.000
 01944,0.00002503,-0.00002169,0.00002685,-0.00003491,0.00005977,-0.0000
 8666,0.00000330,-0.00000410,0.00000802,0.00000104,-0.00000789,0.000008
 93,-0.00002243,-0.00005913,0.00007543,0.00000532,-0.00000231,-0.000002
 12,0.00000821,0.00001537,0.00000792,0.00004322,-0.00001705,0.00001530,
 -0.00036967,-0.00006096,0.00029024,-0.00190835,0.15115749,-0.00011661,
 0.00007789,-0.00001238,0.00001313,0.00000818,-0.00003873,0.00005366,-0
 .00001584,0.00004227,-0.00007292,0.00005432,-0.00002420,0.00001350,0.0
 0002667,-0.00001569,-0.00063152,0.00041112,0.00047364,-0.00024609,0.00
 141135,0.00056446,0.00008613,-0.00025121,-0.00014343,-0.00017265,0.000
 03165,0.00005501,0.00011607,0.00028398,-0.00000805,0.00002359,0.000033
 17,-0.00006660,-0.00009243,-0.00006529,0.00011005,-0.00148204,-0.00221
 806,0.00180279,0.00000431,0.00003561,-0.00001868,0.00002306,0.00006091
 ,-0.00010426,-0.00059215,0.00198546,-0.00008178,0.00032817,0.00033987,
 0.00082875,-0.00430452,0.01595441,-0.01580071,-0.00020902,-0.00020617,
 0.00000863,0.00087374,0.00489413,-0.00685713,0.00006457,0.00000415,-0.
 00002196,-0.00002893,0.00000604,0.00000617,-0.00003369,0.00000587,0.00
 001985,0.00009238,0.00018083,-0.00013695,0.00012450,0.00019226,0.00004
 474,0.00005862,0.00007453,-0.00000467,-0.00000708,-0.00008368,0.000090
 92,0.00004198,0.00002634,-0.00004942,0.00000123,0.00007034,-0.00004543
 ,-0.00014482,0.00002825,-0.00017759,0.00011863,-0.00006435,0.00011515,
 0.00019260,-0.00002023,0.00009734,-0.00073752,-0.00012554,0.00015024,0
 .00014510,-0.00001554,0.00010866,-0.00012820,0.00030324,0.00013142,-0.
 00010589,-0.00218835,-0.00113251,0.00220185,-0.00200605,-0.00015200,-0
 .00040317,0.00181875,0.00329010,0.03233618,-0.00590116,-0.05064510,-0.
 01703794,-0.05988434,-0.03315189,0.00089801,0.00044097,-0.00368362,-0.
 00034435,-0.00034822,0.00025089,0.00000770,0.00012706,-0.00004937,0.00
 013795,-0.00017452,-0.00004027,-0.00034706,0.00013433,-0.00022231,0.00
 000954,-0.00001765,0.00004299,-0.00000737,-0.00006215,0.00004065,0.000
 00928,0.00002893,-0.00003043,-0.00003524,-0.00002236,0.00000750,0.0000
 1500,-0.00001081,0.00001267,0.00002902,0.00003703,-0.00006620,0.000002
 60,0.00000049,-0.00003900,0.00000417,0.00003442,-0.00005082,-0.0000128
 4,-0.00011397,0.00018024,-0.00000145,0.00001753,-0.00001659,0.00000183
 ,0.00000493,-0.00002559,-0.00003172,0.00013206,-0.00013999,0.00005981,
 -0.00001209,-0.00000337,0.00003543,0.00003832,-0.00003469,-0.00002778,
 0.00001265,-0.00001303,-0.00002943,-0.00011001,-0.00012269,-0.01071038
 ,0.04459108,0.10474992,-0.00005275,0.00153169,0.00016781,-0.00045645,0
 .00152718,-0.00003771,0.00002810,-0.00074393,-0.00001305,0.00011446,-0
 .00042622,-0.00025432,-0.00022276,0.00055026,-0.00056091,0.00001902,0.
 00011061,-0.00006050,-0.00003410,-0.00005364,0.00002073,-0.00006174,-0
 .00006945,-0.00006746,-0.00006746,0.00002900,-0.00022994,-0.00007703,0
 .00000021,0.00005912,-0.00010644,0.00015195,0.00022856,0.00242830,0.00
 094993,-0.00091318,0.00007018,0.00003182,-0.00007845,0.00074295,-0.002
 37306,-0.00017043,-0.00004509,0.00017724,0.00010553,-0.00001650,0.0000
 1339,0.00002984,0.00003189,0.00000031,0.00000912,-0.00001631,-0.000007
 09,0.00003871,-0.00001685,0.00002635,-0.00010631,0.00000183,-0.0000113
 2,-0.00004052,-0.03975025,0.02794710,-0.00138857,0.00245768,-0.0164784
 9,-0.01110701,-0.00044414,-0.00026154,0.00083866,-0.00005379,0.0000077
 6,-0.00002765,0.00001274,-0.00002283,0.00001301,-0.00004001,-0.0000030
 7,0.00003035,0.00021097,-0.00001946,-0.00003749,-0.00005554,0.00003642
 ,0.00002645,-0.00002839,0.00003900,0.00003923,-0.00029475,-0.00012495,
 -0.00019088,0.00028591,-0.00019857,0.00029851,0.00009191,0.00001058,0.
 00004367,-0.00016303,0.00000128,0.00003344,0.00004887,-0.00001083,0.00
 004089,-0.00000952,0.00001406,-0.00001548,0.00003512,0.00000286,-0.000
 01880,-0.00002459,0.00000522,-0.00000454,-0.00001760,0.00000996,-0.000
 00783,-0.00001527,-0.00003492,0.00005822,0.00000849,0.00001516,-0.0000
 3699,-0.00001445,0.00001867,-0.00002336,0.00022480,-0.00006730,0.00016
 161,-0.00003229,0.00001621,0.00002730,-0.00002647,0.00000790,-0.000085
 16,-0.00014431,0.00018939,-0.00010009,0.00003288,-0.00030878,-0.000160
 12,0.00000679,-0.00003094,0.00003033,0.00097370,0.00148672,-0.00032579
 ,-0.00676483,-0.00338782,0.00158215,-0.00021932,-0.00026907,0.00020307
 ,-0.03054111,-0.01996347,0.01692111,0.00191006,0.00125985,-0.00069710,
 0.00055194,0.00001893,-0.00052176,-0.00099208,-0.00310828,0.00127899,0
 .00030426,0.00062089,0.00033944,-0.00008447,-0.00003208,-0.00003344,0.
 00007219,0.00066121,-0.00069992,0.00011988,-0.00003558,-0.00005701,0.0
 0000790,-0.00001122,0.00001288,-0.00406854,-0.00439847,0.00173644,-0.0
 0003876,-0.00000276,0.00001536,0.00000615,0.00001622,-0.00002853,0.074
 19805,-0.00010283,-0.00088212,-0.00093474,0.00114720,-0.00058729,0.000
 76699,0.00017358,0.00058588,-0.00002952,-0.00015981,0.00021717,0.00024
 820,-0.00099224,0.00268182,0.00127879,-0.00001547,0.00002392,0.0000164
 5,-0.00001950,0.00000506,-0.00000221,-0.00003117,0.00024836,0.00007792
 ,0.00020492,-0.00001924,0.00006158,-0.00003984,-0.00002388,0.00001201,
 -0.00010747,-0.00025560,-0.00018038,0.00021223,-0.00181977,-0.00419187
 ,0.00006068,0.00000305,0.00001026,-0.00005110,-0.00128936,0.00341208,0
 .00016534,-0.00009412,0.00025877,-0.00000671,-0.00000516,0.00000861,0.
 00000213,-0.00000330,0.00000846,-0.00001003,0.00000429,0.00000941,0.00
 000099,0.00000803,-0.00001892,0.00000384,-0.00001085,-0.00002630,0.032
 37279,-0.03831726,0.00434840,-0.01701715,-0.09358241,-0.06092804,0.001
 46865,-0.00048137,-0.00214789,0.00007721,0.00001723,0.00000635,-0.0000
 0699,-0.00000691,0.00000297,-0.00003009,0.00001411,-0.00002241,-0.0002
 3080,-0.00007985,0.00021509,0.00001465,-0.00001091,0.00001526,0.000042
 32,0.00001119,0.00000762,0.00000880,-0.00000229,-0.00002811,-0.0000159
 2,-0.00000552,0.00000759,-0.00000806,0.00000063,-0.00000845,0.00001895
 ,0.00001206,-0.00002518,-0.00000475,0.00001928,0.00001106,0.00000494,-
 0.00001489,0.00002201,-0.00000958,0.00001425,-0.00002803,-0.00000880,-
 0.00000257,-0.00000200,-0.00000908,0.00000254,0.00000753,-0.00001881,0
 .00001445,-0.00002060,-0.00000101,0.00000442,0.00000565,0.00001065,-0.
 00001468,0.00001966,0.00003325,-0.00001431,0.00009289,0.00004939,0.000
 05619,-0.00003035,0.00002569,-0.00004136,-0.00002103,-0.00040750,-0.00
 010294,0.00006332,0.00020497,0.00019839,0.00029812,0.00009239,0.000026
 52,-0.00003132,-0.00230622,-0.00118157,-0.00084037,-0.00483587,0.00421
 140,0.00166759,0.00021766,0.00014578,-0.00018946,-0.02320189,-0.044598
 87,0.02565090,0.00119371,0.00450966,0.00108505,-0.00015493,-0.00000225
 ,0.00037244,-0.00096095,-0.00183680,-0.00267648,0.00073023,0.00022821,
 0.00035732,-0.00000749,0.00031237,-0.00001739,0.00001355,0.00030830,-0
 .00011030,-0.00013573,-0.00002068,0.00002609,0.00000076,-0.00001450,0.
 00002202,-0.00263548,0.00180705,-0.00087719,0.00002375,0.00001056,-0.0
 0001936,-0.00000176,-0.00000582,-0.00000151,0.01496982,0.16962627,0.00
 032216,-0.00107472,-0.00024399,0.00000277,-0.00141451,-0.00036524,-0.0
 0027039,0.00001717,0.00021798,0.00001003,0.00016853,0.00015752,-0.0023
 5575,0.00011933,-0.00111341,-0.00003666,-0.00009868,0.00002275,-0.0000
 0701,0.00002456,0.00000635,0.00011849,0.00006551,0.00003906,0.00001785
 ,-0.00004420,0.00014428,0.00000326,0.00001091,-0.00000656,0.00014085,-
 0.00014472,0.00014925,-0.00044990,0.00285069,0.00058402,0.00000964,0.0
 0000332,-0.00000839,-0.00191382,0.00205156,-0.00123401,-0.00003393,0.0
 0010670,-0.00000345,-0.00000459,-0.00000650,-0.00001091,-0.00000148,0.
 00000335,0.00000026,-0.00000825,-0.00001476,0.00001530,-0.00000290,0.0
 0000800,-0.00002672,0.00000833,-0.00000422,-0.00001298,-0.00052493,0.0
 0347056,-0.00771748,-0.01185632,-0.06276336,-0.03337147,-0.00093136,-0
 .00078745,0.00180669,0.00001110,-0.00000011,-0.00001586,-0.00000243,0.
 00000225,-0.00000501,0.00002186,-0.00001903,0.00000015,0.00003234,0.00
 010257,-0.00010825,-0.00002412,0.00001026,-0.00002501,-0.00003053,-0.0
 0000086,0.00001791,0.00002215,-0.00002042,-0.00001980,0.00001291,0.000
 00307,-0.00000510,-0.00000347,-0.00000764,0.00000746,-0.00000241,0.000
 00924,-0.00000741,0.00000696,-0.00000363,0.00000064,0.00000264,-0.0000
 0673,0.00000956,-0.00000040,0.00000276,-0.00001436,0.00000007,-0.00000
 132,0.00000124,0.00000035,-0.00000150,0.00000433,-0.00000818,0.0000117
 7,-0.00001801,-0.00000032,0.00000239,0.00001054,0.00000771,-0.00000992
 ,0.00001342,0.00002546,-0.00001630,0.00007309,0.00001408,0.00005106,0.
 00000137,0.00001751,-0.00004004,-0.00006565,-0.00047248,0.00010463,-0.
 00000971,0.00023942,-0.00027806,0.00016070,0.00012694,0.00001872,-0.00
 006265,-0.00020437,0.00153189,0.00176973,0.00293680,0.00084993,-0.0011
 9017,0.00007830,-0.00002156,-0.00021476,0.01741545,0.01984634,-0.01934
 267,0.00198974,0.00244466,-0.00421540,-0.00042951,0.00001080,-0.000107
 66,0.00035923,0.00001528,0.00017004,-0.00008550,-0.00000594,-0.0000324
 8,-0.00004410,0.00006054,0.00004054,-0.00001169,-0.00003316,0.00012567
 ,-0.00000712,-0.00003239,0.00004025,0.00000272,-0.00001012,0.00001236,
 0.00204137,-0.00004717,-0.00127873,0.00001965,0.00000464,-0.00001884,-
 0.00000400,-0.00000892,0.00000205,-0.00629022,0.03293495,0.06526758\\-
 0.00001382,0.00000545,-0.00001412,0.00000307,0.00000005,-0.00000564,-0
 .00000931,-0.00000692,0.00003134,0.00000372,-0.00000306,-0.00000023,0.
 00000184,-0.00000009,-0.00000798,0.00000462,-0.00000716,0.00000387,-0.
 00000306,-0.00000115,-0.00000045,0.00000424,0.00000617,0.00000610,0.00
 000183,0.00000480,-0.00000425,-0.00000115,-0.00000166,0.00000084,0.000
 00070,0.00000261,0.00000265,0.00000155,-0.00000884,0.00002437,0.000006
 88,-0.00000102,0.00000121,0.00000899,0.00001294,-0.00000374,-0.0000031
 7,-0.00000366,0.00000064,-0.00000368,-0.00000126,0.00000223,0.00000173
 ,-0.00000867,0.00000203,-0.00003032,-0.00001498,-0.00002227,0.00000878
 ,0.00000718,-0.00001060,-0.00000111,0.00000461,0.00000008,-0.00001882,
 0.00001260,0.00000305,0.00000178,-0.00000679,0.00002262,0.00000573,0.0
 0000403,0.00000270,-0.00000079,0.00000253,-0.00000273,0.00000105,0.000
 00087,0.00000724,-0.00000376,-0.00000033,0.00000108,0.00001617,-0.0000
 1014,-0.00001555,0.00000554,-0.00000303,0.00000277,-0.00000566,-0.0000
 0182,0.00000567,-0.00001342,0.00001698,-0.00000115,-0.00000344,-0.0000
 0155,0.00000605,0.00000050,-0.00000026,0.00000250,0.00000682,0.0000059
 5,-0.00001166,0.00000049,-0.00000197,0.00000201,-0.00000132,-0.0000009
 1,-0.00000063,0.00000067,-0.00000206,-0.00000461,-0.00000067,0.0000001
 3,0.00000198,-0.00000060,0.00000003,-0.00000077,0.00000495,-0.00000156
 ,-0.00000164,0.00000323,0.00000646,-0.00000569,-0.00000302,0.,0.000000
 44,0.00003239,-0.00000550,0.00005614,0.00000401,0.00001158,-0.00000619
 ,0.00001305,0.00000157,-0.00002177,-0.00003761,-0.00001639,-0.00001108
 ,0.00000330,-0.00001783,0.00001344,0.00000956,0.00000265,0.00000933,-0
 .00001083,0.00003672,-0.00003197,0.00002877,-0.00001298,0.00000624,-0.
 00000960,0.00000744,-0.00000098,-0.00001537,0.00005509,0.00002745,0.00
 000306,-0.00001284,0.00000578,0.00000266,0.00000614,-0.00000431,-0.000
 00008,-0.00003763,-0.00004142,-0.00000905,-0.00000239,0.00002725,-0.00
 000023,0.00000305,0.00000183,0.00001218,0.00000738,-0.00000739,0.00000
 162,-0.00000272,0.00000241,0.00000180,-0.00000108,-0.00000071,-0.00000
 057,-0.00000118,-0.00000229,-0.00000736,0.00000484,-0.00000719,0.00000
 376,0.00000116,0.00000084,-0.00000322,-0.00003157,-0.00003515\\\@
 The archive entry for this job was punched.


 HE WHO LAUGHS LAST PROBABLY DIDN'T GET THE JOKE.
 Job cpu time:       6 days  4 hours 26 minutes 48.2 seconds.
 Elapsed time:       0 days  3 hours  6 minutes  2.1 seconds.
 File lengths (MBytes):  RWF=  13291 Int=      0 D2E=      0 Chk=    135 Scr=      2
 Normal termination of Gaussian 16 at Tue Feb 21 14:35:29 2023.
