 Entering Gaussian System, Link 0=g16
 Initial command:
 /home/chesagar/softwares/G16_AVX2//g16/l1.exe "/home/chesagar/scratch/Gau-207398.inp" -scrdir="/home/chesagar/scratch/"
 Entering Link 1 = /home/chesagar/softwares/G16_AVX2//g16/l1.exe PID=    207399.
  
 Copyright (c) 1988-2019, Gaussian, Inc.  All Rights Reserved.
  
 This is part of the Gaussian(R) 16 program.  It is based on
 the Gaussian(R) 09 system (copyright 2009, Gaussian, Inc.),
 the Gaussian(R) 03 system (copyright 2003, Gaussian, Inc.),
 the Gaussian(R) 98 system (copyright 1998, Gaussian, Inc.),
 the Gaussian(R) 94 system (copyright 1995, Gaussian, Inc.),
 the Gaussian 92(TM) system (copyright 1992, Gaussian, Inc.),
 the Gaussian 90(TM) system (copyright 1990, Gaussian, Inc.),
 the Gaussian 88(TM) system (copyright 1988, Gaussian, Inc.),
 the Gaussian 86(TM) system (copyright 1986, Carnegie Mellon
 University), and the Gaussian 82(TM) system (copyright 1983,
 Carnegie Mellon University). Gaussian is a federally registered
 trademark of Gaussian, Inc.
  
 This software contains proprietary and confidential information,
 including trade secrets, belonging to Gaussian, Inc.
  
 This software is provided under written license and may be
 used, copied, transmitted, or stored only in accord with that
 written license.
  
 The following legend is applicable only to US Government
 contracts under FAR:
  
                    RESTRICTED RIGHTS LEGEND
  
 Use, reproduction and disclosure by the US Government is
 subject to restrictions as set forth in subparagraphs (a)
 and (c) of the Commercial Computer Software - Restricted
 Rights clause in FAR 52.227-19.
  
 Gaussian, Inc.
 340 Quinnipiac St., Bldg. 40, Wallingford CT 06492
  
  
 ---------------------------------------------------------------
 Warning -- This program may not be used in any manner that
 competes with the business of Gaussian, Inc. or will provide
 assistance to any competitor of Gaussian, Inc.  The licensee
 of this program is prohibited from giving any competitor of
 Gaussian, Inc. access to this program.  By using this program,
 the user acknowledges that Gaussian, Inc. is engaged in the
 business of creating and licensing software in the field of
 computational chemistry and represents and warrants to the
 licensee that it is not a competitor of Gaussian, Inc. and that
 it will not use this program in any manner prohibited above.
 ---------------------------------------------------------------
  

 Cite this work as:
 Gaussian 16, Revision C.01,
 M. J. Frisch, G. W. Trucks, H. B. Schlegel, G. E. Scuseria, 
 M. A. Robb, J. R. Cheeseman, G. Scalmani, V. Barone, 
 G. A. Petersson, H. Nakatsuji, X. Li, M. Caricato, A. V. Marenich, 
 J. Bloino, B. G. Janesko, R. Gomperts, B. Mennucci, H. P. Hratchian, 
 J. V. Ortiz, A. F. Izmaylov, J. L. Sonnenberg, D. Williams-Young, 
 F. Ding, F. Lipparini, F. Egidi, J. Goings, B. Peng, A. Petrone, 
 T. Henderson, D. Ranasinghe, V. G. Zakrzewski, J. Gao, N. Rega, 
 G. Zheng, W. Liang, M. Hada, M. Ehara, K. Toyota, R. Fukuda, 
 J. Hasegawa, M. Ishida, T. Nakajima, Y. Honda, O. Kitao, H. Nakai, 
 T. Vreven, K. Throssell, J. A. Montgomery, Jr., J. E. Peralta, 
 F. Ogliaro, M. J. Bearpark, J. J. Heyd, E. N. Brothers, K. N. Kudin, 
 V. N. Staroverov, T. A. Keith, R. Kobayashi, J. Normand, 
 K. Raghavachari, A. P. Rendell, J. C. Burant, S. S. Iyengar, 
 J. Tomasi, M. Cossi, J. M. Millam, M. Klene, C. Adamo, R. Cammi, 
 J. W. Ochterski, R. L. Martin, K. Morokuma, O. Farkas, 
 J. B. Foresman, and D. J. Fox, Gaussian, Inc., Wallingford CT, 2019.
 
 ******************************************
 Gaussian 16:  ES64L-G16RevC.01  3-Jul-2019
                21-Feb-2023 
 ******************************************
 %nprocshared=46
 Will use up to   46 processors via shared memory.
 %chk=Mo19S44_H2S_f.chk
 %mem=100GB
 ---------------------------------------------------------
 # opt freq b3lyp/gen nosymm pseudo=read scf=maxcycles=500
 ---------------------------------------------------------
 1/18=20,19=15,26=3,38=1/1,3;
 2/9=110,12=2,15=1,17=6,18=5,40=1/2;
 3/5=7,11=2,16=1,17=8,25=1,30=1,71=1,74=-5/1,2,3;
 4//1;
 5/5=2,7=500,38=5/2;
 6/7=2,8=2,9=2,10=2,28=1/1;
 7/30=1/1,2,3,16;
 1/18=20,19=15,26=3/3(2);
 2/9=110,15=1/2;
 99//99;
 2/9=110,15=1/2;
 3/5=7,6=1,11=2,16=1,17=8,25=1,30=1,71=1,74=-5,82=7/1,2,3;
 4/5=5,16=3,69=1/1;
 5/5=2,7=500,38=5/2;
 7/30=1/1,2,3,16;
 1/18=20,19=15,26=3/3(-5);
 2/9=110,15=1/2;
 6/7=2,8=2,9=2,10=2,19=2,28=1/1;
 99/9=1/99;
 -------------------
 Title Card Required
 -------------------
 Symbolic Z-matrix:
 Charge =  0 Multiplicity = 1
 42                    0.38212   1.29531   12.65084 
 16                    2.3741    2.24801   13.64207 
 16                   -0.66408   1.88812   14.87458 
 16                   -0.43287   0.98673   10.36939 
 16                    1.98784  -0.38383   11.94809 
 42                   -2.03759   2.69829   11.0093 
 16                   -2.81614   2.40763   8.72919 
 16                   -0.03788   3.61128   12.05515 
 42                    0.98984   2.92809   9.9304 
 16                    0.17052   2.6431    7.63199 
 16                    2.58661   1.19151   9.28497 
 42                    3.39843   1.54055   11.54715 
 42                   -1.42451   4.34296   8.3262 
 16                    5.55966   2.51982   12.48319 
 16                    3.04434   3.84065   10.92111 
 16                   -2.3856    5.01994   10.44981 
 16                    1.12048   6.94384   6.55968 
 42                   -4.42378   4.22268   9.43915 
 16                   -5.86224   2.00742   9.6204 
 16                   -5.53179   4.70617   11.39006 
 42                    2.56774   0.00761   14.16871 
 16                    4.83668   0.20393   15.24015 
 16                    1.75087   0.45674   16.3832 
 42                    1.60367   4.56042   7.24918 
 16                    0.93053   4.44388   4.80948 
 16                    0.59523   5.26844   9.33843 
 42                    4.03096   3.08799   8.81326 
 16                    3.18209   2.84891   6.5604 
 16                    3.63059   5.43826   8.29693 
 42                    4.58946   4.75831   6.22386 
 16                    6.8266    4.96794   6.49426 
 16                    4.32116   7.25394   5.86646 
 42                    2.61184   6.41645   4.69568 
 16                    4.0132    4.59791   3.94906 
 16                   -1.48414   7.02903   3.89778 
 42                   -0.844     5.8526    5.53182 
 16                   -2.35699   4.15682   5.98006 
 16                   -1.79405   6.73346   7.60819 
 42                   -3.68543   5.96694   6.53144 
 16                   -5.6692    4.64573   7.31311 
 16                   -4.49489   7.14311   4.97749 
 42                   -5.26656   2.32839   11.72235 
 16                   -3.29772   3.33178   13.10761 
 16                   -3.47111   0.68907   11.56911 
 42                   -2.60861   1.17218   13.83846 
 16                   -1.13916  -0.65021   13.14554 
 16                   -4.00481   0.47003   15.26026 
 42                    0.04004  -0.69513   15.32537 
 16                    1.36078  -2.26345   14.4861 
 16                   -1.22384  -1.56629   16.78285 
 42                    5.80037   0.20871   12.94726 
 16                    5.1417   -0.22024   11.1685 
 16                    8.43441   1.09772   10.79844 
 42                    6.45855   1.68993   10.33756 
 16                    5.55208   1.0806    8.19811 
 16                    6.2674    3.99174   9.67237 
 42                    7.05269   2.85457   7.70847 
 16                    9.13209   2.50541   7.80442 
 16                    2.24399   7.73751   3.08428 
 16                    7.79154  -0.39846   13.36787 
 16                   -6.837     1.61166   12.94223 
 16                   -5.22488   6.38173   8.43695 
 16                    4.53041  -1.56743   14.13043 
 16                    6.72961   1.84596   5.23446 
 1                     7.71435   2.48744   4.57291 
 1                     7.41246   0.68577   5.34349 
 

 GradGradGradGradGradGradGradGradGradGradGradGradGradGradGradGradGradGrad
 Berny optimization.
 Initialization pass.
                           ----------------------------
                           !    Initial Parameters    !
                           ! (Angstroms and Degrees)  !
 --------------------------                            --------------------------
 ! Name  Definition              Value          Derivative Info.                !
 --------------------------------------------------------------------------------
 ! R1    R(1,2)                  2.4204         estimate D2E/DX2                !
 ! R2    R(1,3)                  2.528          estimate D2E/DX2                !
 ! R3    R(1,4)                  2.4422         estimate D2E/DX2                !
 ! R4    R(1,5)                  2.4273         estimate D2E/DX2                !
 ! R5    R(1,8)                  2.4279         estimate D2E/DX2                !
 ! R6    R(1,21)                 2.9562         estimate D2E/DX2                !
 ! R7    R(1,46)                 2.5187         estimate D2E/DX2                !
 ! R8    R(2,12)                 2.4369         estimate D2E/DX2                !
 ! R9    R(2,21)                 2.3096         estimate D2E/DX2                !
 ! R10   R(3,45)                 2.3167         estimate D2E/DX2                !
 ! R11   R(3,48)                 2.7152         estimate D2E/DX2                !
 ! R12   R(4,6)                  2.4319         estimate D2E/DX2                !
 ! R13   R(4,9)                  2.4466         estimate D2E/DX2                !
 ! R14   R(5,12)                 2.4194         estimate D2E/DX2                !
 ! R15   R(5,21)                 2.3282         estimate D2E/DX2                !
 ! R16   R(6,7)                  2.4268         estimate D2E/DX2                !
 ! R17   R(6,8)                  2.4344         estimate D2E/DX2                !
 ! R18   R(6,16)                 2.4133         estimate D2E/DX2                !
 ! R19   R(6,43)                 2.5283         estimate D2E/DX2                !
 ! R20   R(6,44)                 2.5309         estimate D2E/DX2                !
 ! R21   R(7,13)                 2.4175         estimate D2E/DX2                !
 ! R22   R(7,18)                 2.5264         estimate D2E/DX2                !
 ! R23   R(8,9)                  2.4571         estimate D2E/DX2                !
 ! R24   R(9,10)                 2.4567         estimate D2E/DX2                !
 ! R25   R(9,11)                 2.4458         estimate D2E/DX2                !
 ! R26   R(9,15)                 2.4567         estimate D2E/DX2                !
 ! R27   R(9,26)                 2.4461         estimate D2E/DX2                !
 ! R28   R(10,13)                2.4322         estimate D2E/DX2                !
 ! R29   R(10,24)                2.4242         estimate D2E/DX2                !
 ! R30   R(11,12)                2.4287         estimate D2E/DX2                !
 ! R31   R(11,27)                2.4301         estimate D2E/DX2                !
 ! R32   R(12,14)                2.5507         estimate D2E/DX2                !
 ! R33   R(12,15)                2.4099         estimate D2E/DX2                !
 ! R34   R(12,51)                3.0828         estimate D2E/DX2                !
 ! R35   R(12,52)                2.5065         estimate D2E/DX2                !
 ! R36   R(13,16)                2.4273         estimate D2E/DX2                !
 ! R37   R(13,26)                2.4414         estimate D2E/DX2                !
 ! R38   R(13,37)                2.5315         estimate D2E/DX2                !
 ! R39   R(13,38)                2.5232         estimate D2E/DX2                !
 ! R40   R(14,51)                2.3695         estimate D2E/DX2                !
 ! R41   R(14,54)                2.4699         estimate D2E/DX2                !
 ! R42   R(15,27)                2.446          estimate D2E/DX2                !
 ! R43   R(16,18)                2.4107         estimate D2E/DX2                !
 ! R44   R(17,24)                2.5278         estimate D2E/DX2                !
 ! R45   R(17,33)                2.4447         estimate D2E/DX2                !
 ! R46   R(17,36)                2.4711         estimate D2E/DX2                !
 ! R47   R(18,19)                2.6475         estimate D2E/DX2                !
 ! R48   R(18,20)                2.2951         estimate D2E/DX2                !
 ! R49   R(18,40)                2.5            estimate D2E/DX2                !
 ! R50   R(18,42)                3.0841         estimate D2E/DX2                !
 ! R51   R(18,62)                2.5115         estimate D2E/DX2                !
 ! R52   R(19,42)                2.2082         estimate D2E/DX2                !
 ! R53   R(20,42)                2.4155         estimate D2E/DX2                !
 ! R54   R(21,22)                2.5169         estimate D2E/DX2                !
 ! R55   R(21,23)                2.4027         estimate D2E/DX2                !
 ! R56   R(21,48)                2.8672         estimate D2E/DX2                !
 ! R57   R(21,49)                2.5914         estimate D2E/DX2                !
 ! R58   R(21,63)                2.5168         estimate D2E/DX2                !
 ! R59   R(22,51)                2.4872         estimate D2E/DX2                !
 ! R60   R(22,63)                2.1126         estimate D2E/DX2                !
 ! R61   R(23,48)                2.3179         estimate D2E/DX2                !
 ! R62   R(24,25)                2.5335         estimate D2E/DX2                !
 ! R63   R(24,26)                2.4255         estimate D2E/DX2                !
 ! R64   R(24,28)                2.428          estimate D2E/DX2                !
 ! R65   R(24,29)                2.4447         estimate D2E/DX2                !
 ! R66   R(25,33)                2.5944         estimate D2E/DX2                !
 ! R67   R(25,36)                2.3781         estimate D2E/DX2                !
 ! R68   R(27,28)                2.4193         estimate D2E/DX2                !
 ! R69   R(27,29)                2.4394         estimate D2E/DX2                !
 ! R70   R(27,55)                2.5926         estimate D2E/DX2                !
 ! R71   R(27,56)                2.5606         estimate D2E/DX2                !
 ! R72   R(28,30)                2.3958         estimate D2E/DX2                !
 ! R73   R(29,30)                2.3831         estimate D2E/DX2                !
 ! R74   R(30,31)                2.2632         estimate D2E/DX2                !
 ! R75   R(30,32)                2.5353         estimate D2E/DX2                !
 ! R76   R(30,33)                2.9993         estimate D2E/DX2                !
 ! R77   R(30,34)                2.3521         estimate D2E/DX2                !
 ! R78   R(31,57)                2.4478         estimate D2E/DX2                !
 ! R79   R(32,33)                2.2347         estimate D2E/DX2                !
 ! R80   R(33,34)                2.4142         estimate D2E/DX2                !
 ! R81   R(33,59)                2.1159         estimate D2E/DX2                !
 ! R82   R(35,36)                2.1128         estimate D2E/DX2                !
 ! R83   R(36,37)                2.3164         estimate D2E/DX2                !
 ! R84   R(36,38)                2.4474         estimate D2E/DX2                !
 ! R85   R(36,39)                3.0143         estimate D2E/DX2                !
 ! R86   R(37,39)                2.312          estimate D2E/DX2                !
 ! R87   R(38,39)                2.3074         estimate D2E/DX2                !
 ! R88   R(39,40)                2.5084         estimate D2E/DX2                !
 ! R89   R(39,41)                2.1103         estimate D2E/DX2                !
 ! R90   R(39,62)                2.4845         estimate D2E/DX2                !
 ! R91   R(40,62)                2.1152         estimate D2E/DX2                !
 ! R92   R(42,43)                2.6081         estimate D2E/DX2                !
 ! R93   R(42,44)                2.4361         estimate D2E/DX2                !
 ! R94   R(42,61)                2.1138         estimate D2E/DX2                !
 ! R95   R(43,45)                2.3818         estimate D2E/DX2                !
 ! R96   R(44,45)                2.4753         estimate D2E/DX2                !
 ! R97   R(45,46)                2.4414         estimate D2E/DX2                !
 ! R98   R(45,47)                2.1128         estimate D2E/DX2                !
 ! R99   R(46,48)                2.4787         estimate D2E/DX2                !
 ! R100  R(48,49)                2.2155         estimate D2E/DX2                !
 ! R101  R(48,50)                2.1167         estimate D2E/DX2                !
 ! R102  R(51,52)                1.9447         estimate D2E/DX2                !
 ! R103  R(51,54)                3.0721         estimate D2E/DX2                !
 ! R104  R(51,60)                2.1237         estimate D2E/DX2                !
 ! R105  R(51,63)                2.4834         estimate D2E/DX2                !
 ! R106  R(52,54)                2.4644         estimate D2E/DX2                !
 ! R107  R(53,54)                2.1136         estimate D2E/DX2                !
 ! R108  R(54,55)                2.4021         estimate D2E/DX2                !
 ! R109  R(54,56)                2.4036         estimate D2E/DX2                !
 ! R110  R(54,57)                2.9362         estimate D2E/DX2                !
 ! R111  R(55,57)                2.3746         estimate D2E/DX2                !
 ! R112  R(56,57)                2.4014         estimate D2E/DX2                !
 ! R113  R(57,58)                2.1107         estimate D2E/DX2                !
 ! R114  R(57,64)                2.6912         estimate D2E/DX2                !
 ! R115  R(64,65)                1.3487         estimate D2E/DX2                !
 ! R116  R(64,66)                1.3506         estimate D2E/DX2                !
 ! A1    A(2,1,3)               83.5723         estimate D2E/DX2                !
 ! A2    A(2,1,4)              134.9878         estimate D2E/DX2                !
 ! A3    A(2,1,5)               81.1653         estimate D2E/DX2                !
 ! A4    A(2,1,8)               82.3794         estimate D2E/DX2                !
 ! A5    A(2,1,46)             136.1109         estimate D2E/DX2                !
 ! A6    A(3,1,4)              135.5003         estimate D2E/DX2                !
 ! A7    A(3,1,5)              133.6819         estimate D2E/DX2                !
 ! A8    A(3,1,8)               85.443          estimate D2E/DX2                !
 ! A9    A(3,1,21)              87.5046         estimate D2E/DX2                !
 ! A10   A(3,1,46)              76.0195         estimate D2E/DX2                !
 ! A11   A(4,1,5)               82.1192         estimate D2E/DX2                !
 ! A12   A(4,1,8)               80.4217         estimate D2E/DX2                !
 ! A13   A(4,1,21)             132.1703         estimate D2E/DX2                !
 ! A14   A(4,1,46)              83.3576         estimate D2E/DX2                !
 ! A15   A(5,1,8)              134.6902         estimate D2E/DX2                !
 ! A16   A(5,1,46)              85.5308         estimate D2E/DX2                !
 ! A17   A(8,1,21)             132.0187         estimate D2E/DX2                !
 ! A18   A(8,1,46)             132.8826         estimate D2E/DX2                !
 ! A19   A(21,1,46)             90.5295         estimate D2E/DX2                !
 ! A20   A(1,2,12)              83.0852         estimate D2E/DX2                !
 ! A21   A(12,2,21)             83.0598         estimate D2E/DX2                !
 ! A22   A(1,3,45)              83.1937         estimate D2E/DX2                !
 ! A23   A(1,3,48)              79.3751         estimate D2E/DX2                !
 ! A24   A(45,3,48)             89.8799         estimate D2E/DX2                !
 ! A25   A(1,4,6)               83.423          estimate D2E/DX2                !
 ! A26   A(1,4,9)               82.7212         estimate D2E/DX2                !
 ! A27   A(6,4,9)               82.6728         estimate D2E/DX2                !
 ! A28   A(1,5,12)              83.3064         estimate D2E/DX2                !
 ! A29   A(12,5,21)             83.0569         estimate D2E/DX2                !
 ! A30   A(4,6,7)               83.118          estimate D2E/DX2                !
 ! A31   A(4,6,8)               80.5001         estimate D2E/DX2                !
 ! A32   A(4,6,16)             135.3338         estimate D2E/DX2                !
 ! A33   A(4,6,43)             136.3542         estimate D2E/DX2                !
 ! A34   A(4,6,44)              82.7169         estimate D2E/DX2                !
 ! A35   A(7,6,8)              135.4051         estimate D2E/DX2                !
 ! A36   A(7,6,16)              81.4392         estimate D2E/DX2                !
 ! A37   A(7,6,43)             130.5323         estimate D2E/DX2                !
 ! A38   A(7,6,44)              86.0451         estimate D2E/DX2                !
 ! A39   A(8,6,16)              81.7937         estimate D2E/DX2                !
 ! A40   A(8,6,43)              87.644          estimate D2E/DX2                !
 ! A41   A(8,6,44)             131.9118         estimate D2E/DX2                !
 ! A42   A(16,6,43)             83.0783         estimate D2E/DX2                !
 ! A43   A(16,6,44)            137.1657         estimate D2E/DX2                !
 ! A44   A(43,6,44)             74.5161         estimate D2E/DX2                !
 ! A45   A(6,7,13)              82.8808         estimate D2E/DX2                !
 ! A46   A(6,7,18)              81.6091         estimate D2E/DX2                !
 ! A47   A(13,7,18)             80.678          estimate D2E/DX2                !
 ! A48   A(1,8,6)               83.671          estimate D2E/DX2                !
 ! A49   A(1,8,9)               82.7955         estimate D2E/DX2                !
 ! A50   A(6,8,9)               82.4031         estimate D2E/DX2                !
 ! A51   A(4,9,8)               79.7611         estimate D2E/DX2                !
 ! A52   A(4,9,10)              83.2164         estimate D2E/DX2                !
 ! A53   A(4,9,11)              82.1597         estimate D2E/DX2                !
 ! A54   A(4,9,15)             135.1299         estimate D2E/DX2                !
 ! A55   A(4,9,26)             135.1386         estimate D2E/DX2                !
 ! A56   A(8,9,10)             134.5705         estimate D2E/DX2                !
 ! A57   A(8,9,11)             134.3208         estimate D2E/DX2                !
 ! A58   A(8,9,15)              84.1332         estimate D2E/DX2                !
 ! A59   A(8,9,26)              82.8639         estimate D2E/DX2                !
 ! A60   A(10,9,11)             83.5967         estimate D2E/DX2                !
 ! A61   A(10,9,15)            134.3709         estimate D2E/DX2                !
 ! A62   A(10,9,26)             80.2573         estimate D2E/DX2                !
 ! A63   A(11,9,15)             79.8737         estimate D2E/DX2                !
 ! A64   A(11,9,26)            136.1195         estimate D2E/DX2                !
 ! A65   A(15,9,26)             82.9408         estimate D2E/DX2                !
 ! A66   A(9,10,13)             82.5648         estimate D2E/DX2                !
 ! A67   A(9,10,24)             81.8838         estimate D2E/DX2                !
 ! A68   A(13,10,24)            83.1079         estimate D2E/DX2                !
 ! A69   A(9,11,12)             82.5527         estimate D2E/DX2                !
 ! A70   A(9,11,27)             83.405          estimate D2E/DX2                !
 ! A71   A(12,11,27)            82.5287         estimate D2E/DX2                !
 ! A72   A(2,12,5)              80.9892         estimate D2E/DX2                !
 ! A73   A(2,12,11)            134.5845         estimate D2E/DX2                !
 ! A74   A(2,12,14)             85.9415         estimate D2E/DX2                !
 ! A75   A(2,12,15)             83.3663         estimate D2E/DX2                !
 ! A76   A(2,12,51)             93.583          estimate D2E/DX2                !
 ! A77   A(2,12,52)            128.7663         estimate D2E/DX2                !
 ! A78   A(5,12,11)             81.0927         estimate D2E/DX2                !
 ! A79   A(5,12,14)            137.608          estimate D2E/DX2                !
 ! A80   A(5,12,15)            135.7675         estimate D2E/DX2                !
 ! A81   A(5,12,51)             92.0271         estimate D2E/DX2                !
 ! A82   A(5,12,52)             82.6335         estimate D2E/DX2                !
 ! A83   A(11,12,14)           132.8612         estimate D2E/DX2                !
 ! A84   A(11,12,15)            81.1461         estimate D2E/DX2                !
 ! A85   A(11,12,51)           128.4184         estimate D2E/DX2                !
 ! A86   A(11,12,52)            89.4737         estimate D2E/DX2                !
 ! A87   A(14,12,15)            81.5699         estimate D2E/DX2                !
 ! A88   A(14,12,52)            74.6828         estimate D2E/DX2                !
 ! A89   A(15,12,51)           130.1508         estimate D2E/DX2                !
 ! A90   A(15,12,52)           137.1728         estimate D2E/DX2                !
 ! A91   A(7,13,10)             82.2753         estimate D2E/DX2                !
 ! A92   A(7,13,16)             81.3445         estimate D2E/DX2                !
 ! A93   A(7,13,26)            135.2813         estimate D2E/DX2                !
 ! A94   A(7,13,37)             83.3148         estimate D2E/DX2                !
 ! A95   A(7,13,38)            136.1832         estimate D2E/DX2                !
 ! A96   A(10,13,16)           134.7737         estimate D2E/DX2                !
 ! A97   A(10,13,26)            80.8366         estimate D2E/DX2                !
 ! A98   A(10,13,37)            85.7359         estimate D2E/DX2                !
 ! A99   A(10,13,38)           132.6069         estimate D2E/DX2                !
 ! A100  A(16,13,26)            81.9002         estimate D2E/DX2                !
 ! A101  A(16,13,37)           133.2737         estimate D2E/DX2                !
 ! A102  A(16,13,38)            85.7987         estimate D2E/DX2                !
 ! A103  A(26,13,37)           135.7953         estimate D2E/DX2                !
 ! A104  A(26,13,38)            83.1081         estimate D2E/DX2                !
 ! A105  A(37,13,38)            75.64           estimate D2E/DX2                !
 ! A106  A(12,14,54)            81.9856         estimate D2E/DX2                !
 ! A107  A(9,15,12)             82.7098         estimate D2E/DX2                !
 ! A108  A(9,15,27)             82.8483         estimate D2E/DX2                !
 ! A109  A(12,15,27)            82.583          estimate D2E/DX2                !
 ! A110  A(6,16,13)             82.9591         estimate D2E/DX2                !
 ! A111  A(6,16,18)             84.3161         estimate D2E/DX2                !
 ! A112  A(13,16,18)            82.8619         estimate D2E/DX2                !
 ! A113  A(24,17,33)            83.5671         estimate D2E/DX2                !
 ! A114  A(24,17,36)            81.3176         estimate D2E/DX2                !
 ! A115  A(33,17,36)            94.1606         estimate D2E/DX2                !
 ! A116  A(7,18,16)             79.4791         estimate D2E/DX2                !
 ! A117  A(7,18,19)             76.3403         estimate D2E/DX2                !
 ! A118  A(7,18,20)            134.2196         estimate D2E/DX2                !
 ! A119  A(7,18,40)            101.513          estimate D2E/DX2                !
 ! A120  A(7,18,42)             86.5981         estimate D2E/DX2                !
 ! A121  A(7,18,62)            135.1076         estimate D2E/DX2                !
 ! A122  A(16,18,19)           135.0235         estimate D2E/DX2                !
 ! A123  A(16,18,20)            88.9761         estimate D2E/DX2                !
 ! A124  A(16,18,40)           136.2002         estimate D2E/DX2                !
 ! A125  A(16,18,42)            97.1116         estimate D2E/DX2                !
 ! A126  A(16,18,62)            98.782          estimate D2E/DX2                !
 ! A127  A(19,18,20)            81.7075         estimate D2E/DX2                !
 ! A128  A(19,18,40)            85.9369         estimate D2E/DX2                !
 ! A129  A(19,18,62)           124.982          estimate D2E/DX2                !
 ! A130  A(20,18,40)           116.5339         estimate D2E/DX2                !
 ! A131  A(20,18,62)            90.2354         estimate D2E/DX2                !
 ! A132  A(40,18,42)           126.6822         estimate D2E/DX2                !
 ! A133  A(42,18,62)           137.4146         estimate D2E/DX2                !
 ! A134  A(1,21,22)            148.3328         estimate D2E/DX2                !
 ! A135  A(1,21,23)             98.0738         estimate D2E/DX2                !
 ! A136  A(1,21,48)             70.2513         estimate D2E/DX2                !
 ! A137  A(1,21,49)             95.7556         estimate D2E/DX2                !
 ! A138  A(1,21,63)            147.2826         estimate D2E/DX2                !
 ! A139  A(2,21,5)              85.683          estimate D2E/DX2                !
 ! A140  A(2,21,22)             95.5657         estimate D2E/DX2                !
 ! A141  A(2,21,23)             90.0188         estimate D2E/DX2                !
 ! A142  A(2,21,48)            104.8225         estimate D2E/DX2                !
 ! A143  A(2,21,49)            147.0361         estimate D2E/DX2                !
 ! A144  A(2,21,63)            131.9879         estimate D2E/DX2                !
 ! A145  A(5,21,22)            130.0669         estimate D2E/DX2                !
 ! A146  A(5,21,23)            145.6712         estimate D2E/DX2                !
 ! A147  A(5,21,48)             97.1216         estimate D2E/DX2                !
 ! A148  A(5,21,49)             81.5739         estimate D2E/DX2                !
 ! A149  A(5,21,63)             94.2732         estimate D2E/DX2                !
 ! A150  A(22,21,23)            84.235          estimate D2E/DX2                !
 ! A151  A(22,21,48)           129.9506         estimate D2E/DX2                !
 ! A152  A(22,21,49)           115.8554         estimate D2E/DX2                !
 ! A153  A(23,21,49)            83.8336         estimate D2E/DX2                !
 ! A154  A(23,21,63)           113.3362         estimate D2E/DX2                !
 ! A155  A(48,21,63)           122.6997         estimate D2E/DX2                !
 ! A156  A(49,21,63)            79.4335         estimate D2E/DX2                !
 ! A157  A(21,22,51)            87.5352         estimate D2E/DX2                !
 ! A158  A(10,24,17)           132.5178         estimate D2E/DX2                !
 ! A159  A(10,24,25)            87.6276         estimate D2E/DX2                !
 ! A160  A(10,24,26)            81.3185         estimate D2E/DX2                !
 ! A161  A(10,24,28)            82.623          estimate D2E/DX2                !
 ! A162  A(10,24,29)           134.9487         estimate D2E/DX2                !
 ! A163  A(17,24,25)            74.3308         estimate D2E/DX2                !
 ! A164  A(17,24,26)            83.1219         estimate D2E/DX2                !
 ! A165  A(17,24,28)           135.3608         estimate D2E/DX2                !
 ! A166  A(17,24,29)            86.3776         estimate D2E/DX2                !
 ! A167  A(25,24,26)           137.0892         estimate D2E/DX2                !
 ! A168  A(25,24,28)            82.364          estimate D2E/DX2                !
 ! A169  A(25,24,29)           130.5039         estimate D2E/DX2                !
 ! A170  A(26,24,28)           136.0879         estimate D2E/DX2                !
 ! A171  A(26,24,29)            82.5729         estimate D2E/DX2                !
 ! A172  A(28,24,29)            80.5437         estimate D2E/DX2                !
 ! A173  A(24,25,33)            80.5074         estimate D2E/DX2                !
 ! A174  A(24,25,36)            83.022          estimate D2E/DX2                !
 ! A175  A(33,25,36)            92.6657         estimate D2E/DX2                !
 ! A176  A(9,26,13)             82.5943         estimate D2E/DX2                !
 ! A177  A(9,26,24)             82.0734         estimate D2E/DX2                !
 ! A178  A(13,26,24)            82.8869         estimate D2E/DX2                !
 ! A179  A(11,27,15)            80.3937         estimate D2E/DX2                !
 ! A180  A(11,27,28)            83.9781         estimate D2E/DX2                !
 ! A181  A(11,27,29)           134.0619         estimate D2E/DX2                !
 ! A182  A(11,27,55)            77.9086         estimate D2E/DX2                !
 ! A183  A(11,27,56)           136.8401         estimate D2E/DX2                !
 ! A184  A(15,27,28)           133.7362         estimate D2E/DX2                !
 ! A185  A(15,27,29)            79.6144         estimate D2E/DX2                !
 ! A186  A(15,27,55)           132.7942         estimate D2E/DX2                !
 ! A187  A(15,27,56)            87.3957         estimate D2E/DX2                !
 ! A188  A(28,27,29)            80.8234         estimate D2E/DX2                !
 ! A189  A(28,27,55)            84.7447         estimate D2E/DX2                !
 ! A190  A(28,27,56)           130.8262         estimate D2E/DX2                !
 ! A191  A(29,27,55)           142.3773         estimate D2E/DX2                !
 ! A192  A(29,27,56)            82.7797         estimate D2E/DX2                !
 ! A193  A(55,27,56)            80.8188         estimate D2E/DX2                !
 ! A194  A(24,28,27)            83.9311         estimate D2E/DX2                !
 ! A195  A(24,28,30)            81.9485         estimate D2E/DX2                !
 ! A196  A(27,28,30)            81.1373         estimate D2E/DX2                !
 ! A197  A(24,29,27)            83.1562         estimate D2E/DX2                !
 ! A198  A(24,29,30)            81.8554         estimate D2E/DX2                !
 ! A199  A(27,29,30)            80.9783         estimate D2E/DX2                !
 ! A200  A(28,30,29)            82.4635         estimate D2E/DX2                !
 ! A201  A(28,30,31)           129.6223         estimate D2E/DX2                !
 ! A202  A(28,30,32)           137.9144         estimate D2E/DX2                !
 ! A203  A(28,30,33)            97.1719         estimate D2E/DX2                !
 ! A204  A(28,30,34)            86.4215         estimate D2E/DX2                !
 ! A205  A(29,30,31)           105.5078         estimate D2E/DX2                !
 ! A206  A(29,30,32)            78.4161         estimate D2E/DX2                !
 ! A207  A(29,30,33)            91.1567         estimate D2E/DX2                !
 ! A208  A(29,30,34)           139.6559         estimate D2E/DX2                !
 ! A209  A(31,30,32)            91.7347         estimate D2E/DX2                !
 ! A210  A(31,30,33)           131.4107         estimate D2E/DX2                !
 ! A211  A(31,30,34)           111.3489         estimate D2E/DX2                !
 ! A212  A(32,30,34)            84.5409         estimate D2E/DX2                !
 ! A213  A(30,31,57)            94.0483         estimate D2E/DX2                !
 ! A214  A(17,33,25)            74.6475         estimate D2E/DX2                !
 ! A215  A(17,33,30)            97.6436         estimate D2E/DX2                !
 ! A216  A(17,33,32)            89.2156         estimate D2E/DX2                !
 ! A217  A(17,33,34)           138.7983         estimate D2E/DX2                !
 ! A218  A(17,33,59)           109.8716         estimate D2E/DX2                !
 ! A219  A(25,33,30)            89.1185         estimate D2E/DX2                !
 ! A220  A(25,33,32)           139.2586         estimate D2E/DX2                !
 ! A221  A(25,33,34)            79.4562         estimate D2E/DX2                !
 ! A222  A(25,33,59)           113.2938         estimate D2E/DX2                !
 ! A223  A(30,33,59)           147.9751         estimate D2E/DX2                !
 ! A224  A(32,33,34)            90.0186         estimate D2E/DX2                !
 ! A225  A(32,33,59)           107.3364         estimate D2E/DX2                !
 ! A226  A(34,33,59)           109.6145         estimate D2E/DX2                !
 ! A227  A(17,36,25)            78.1543         estimate D2E/DX2                !
 ! A228  A(17,36,35)           108.4618         estimate D2E/DX2                !
 ! A229  A(17,36,37)           139.6444         estimate D2E/DX2                !
 ! A230  A(17,36,38)            78.2742         estimate D2E/DX2                !
 ! A231  A(17,36,39)           126.4905         estimate D2E/DX2                !
 ! A232  A(25,36,35)           108.7242         estimate D2E/DX2                !
 ! A233  A(25,36,37)            96.4599         estimate D2E/DX2                !
 ! A234  A(25,36,38)           139.5148         estimate D2E/DX2                !
 ! A235  A(25,36,39)           145.7523         estimate D2E/DX2                !
 ! A236  A(35,36,37)           111.0626         estimate D2E/DX2                !
 ! A237  A(35,36,38)           109.763          estimate D2E/DX2                !
 ! A238  A(35,36,39)            87.1196         estimate D2E/DX2                !
 ! A239  A(37,36,38)            81.1278         estimate D2E/DX2                !
 ! A240  A(13,37,36)            83.3913         estimate D2E/DX2                !
 ! A241  A(13,37,39)            86.1616         estimate D2E/DX2                !
 ! A242  A(13,38,36)            81.001          estimate D2E/DX2                !
 ! A243  A(13,38,39)            86.452          estimate D2E/DX2                !
 ! A244  A(36,39,40)           145.9822         estimate D2E/DX2                !
 ! A245  A(36,39,41)            97.9624         estimate D2E/DX2                !
 ! A246  A(36,39,62)           147.6449         estimate D2E/DX2                !
 ! A247  A(37,39,38)            84.2834         estimate D2E/DX2                !
 ! A248  A(37,39,40)            96.6817         estimate D2E/DX2                !
 ! A249  A(37,39,41)           118.7603         estimate D2E/DX2                !
 ! A250  A(37,39,62)           132.0391         estimate D2E/DX2                !
 ! A251  A(38,39,40)           132.673          estimate D2E/DX2                !
 ! A252  A(38,39,41)           118.2216         estimate D2E/DX2                !
 ! A253  A(38,39,62)            95.4248         estimate D2E/DX2                !
 ! A254  A(40,39,41)           102.6904         estimate D2E/DX2                !
 ! A255  A(41,39,62)           103.5348         estimate D2E/DX2                !
 ! A256  A(18,40,39)            87.7169         estimate D2E/DX2                !
 ! A257  A(18,42,43)            87.1695         estimate D2E/DX2                !
 ! A258  A(18,42,44)            99.5178         estimate D2E/DX2                !
 ! A259  A(18,42,61)           146.9849         estimate D2E/DX2                !
 ! A260  A(19,42,20)            88.9983         estimate D2E/DX2                !
 ! A261  A(19,42,43)           139.9207         estimate D2E/DX2                !
 ! A262  A(19,42,44)            92.3573         estimate D2E/DX2                !
 ! A263  A(19,42,61)           107.436          estimate D2E/DX2                !
 ! A264  A(20,42,43)            77.1287         estimate D2E/DX2                !
 ! A265  A(20,42,44)           137.2821         estimate D2E/DX2                !
 ! A266  A(20,42,61)           109.365          estimate D2E/DX2                !
 ! A267  A(43,42,44)            74.688          estimate D2E/DX2                !
 ! A268  A(43,42,61)           112.6301         estimate D2E/DX2                !
 ! A269  A(44,42,61)           110.8366         estimate D2E/DX2                !
 ! A270  A(6,43,42)             80.7373         estimate D2E/DX2                !
 ! A271  A(6,43,45)             83.2967         estimate D2E/DX2                !
 ! A272  A(42,43,45)            91.8656         estimate D2E/DX2                !
 ! A273  A(6,44,42)             84.0963         estimate D2E/DX2                !
 ! A274  A(6,44,45)             81.401          estimate D2E/DX2                !
 ! A275  A(42,44,45)            93.8879         estimate D2E/DX2                !
 ! A276  A(3,45,43)             95.7318         estimate D2E/DX2                !
 ! A277  A(3,45,44)            139.7106         estimate D2E/DX2                !
 ! A278  A(3,45,46)             81.5135         estimate D2E/DX2                !
 ! A279  A(3,45,47)            110.879          estimate D2E/DX2                !
 ! A280  A(43,45,44)            78.161          estimate D2E/DX2                !
 ! A281  A(43,45,46)           139.8062         estimate D2E/DX2                !
 ! A282  A(43,45,47)           108.4592         estimate D2E/DX2                !
 ! A283  A(44,45,46)            78.6872         estimate D2E/DX2                !
 ! A284  A(44,45,47)           108.7735         estimate D2E/DX2                !
 ! A285  A(46,45,47)           109.9178         estimate D2E/DX2                !
 ! A286  A(1,46,45)             80.95           estimate D2E/DX2                !
 ! A287  A(1,46,48)             84.2258         estimate D2E/DX2                !
 ! A288  A(45,46,48)            92.8814         estimate D2E/DX2                !
 ! A289  A(3,48,21)             85.8974         estimate D2E/DX2                !
 ! A290  A(3,48,23)             78.1342         estimate D2E/DX2                !
 ! A291  A(3,48,46)             73.3444         estimate D2E/DX2                !
 ! A292  A(3,48,49)            139.9247         estimate D2E/DX2                !
 ! A293  A(3,48,50)            110.5507         estimate D2E/DX2                !
 ! A294  A(21,48,46)            93.4507         estimate D2E/DX2                !
 ! A295  A(21,48,50)           154.8265         estimate D2E/DX2                !
 ! A296  A(23,48,46)           138.0266         estimate D2E/DX2                !
 ! A297  A(23,48,49)            94.8565         estimate D2E/DX2                !
 ! A298  A(23,48,50)           109.3291         estimate D2E/DX2                !
 ! A299  A(46,48,49)            87.8963         estimate D2E/DX2                !
 ! A300  A(46,48,50)           109.2035         estimate D2E/DX2                !
 ! A301  A(49,48,50)           108.9927         estimate D2E/DX2                !
 ! A302  A(12,51,22)            96.7554         estimate D2E/DX2                !
 ! A303  A(12,51,54)            64.7108         estimate D2E/DX2                !
 ! A304  A(12,51,60)           160.7301         estimate D2E/DX2                !
 ! A305  A(12,51,63)            97.2921         estimate D2E/DX2                !
 ! A306  A(14,51,22)            98.225          estimate D2E/DX2                !
 ! A307  A(14,51,52)            90.091          estimate D2E/DX2                !
 ! A308  A(14,51,60)           114.386          estimate D2E/DX2                !
 ! A309  A(14,51,63)           137.6407         estimate D2E/DX2                !
 ! A310  A(22,51,52)           135.3625         estimate D2E/DX2                !
 ! A311  A(22,51,54)           150.1192         estimate D2E/DX2                !
 ! A312  A(22,51,60)           100.3782         estimate D2E/DX2                !
 ! A313  A(52,51,60)           115.8266         estimate D2E/DX2                !
 ! A314  A(52,51,63)            96.0169         estimate D2E/DX2                !
 ! A315  A(54,51,60)            96.0395         estimate D2E/DX2                !
 ! A316  A(54,51,63)           149.2176         estimate D2E/DX2                !
 ! A317  A(60,51,63)           100.4062         estimate D2E/DX2                !
 ! A318  A(12,52,54)            82.997          estimate D2E/DX2                !
 ! A319  A(14,54,52)            76.8828         estimate D2E/DX2                !
 ! A320  A(14,54,53)           104.1788         estimate D2E/DX2                !
 ! A321  A(14,54,55)           136.1873         estimate D2E/DX2                !
 ! A322  A(14,54,56)            83.6674         estimate D2E/DX2                !
 ! A323  A(14,54,57)           135.9065         estimate D2E/DX2                !
 ! A324  A(51,54,53)            83.1053         estimate D2E/DX2                !
 ! A325  A(51,54,55)           123.6033         estimate D2E/DX2                !
 ! A326  A(51,54,56)           132.8271         estimate D2E/DX2                !
 ! A327  A(52,54,53)           102.0538         estimate D2E/DX2                !
 ! A328  A(52,54,55)            84.3788         estimate D2E/DX2                !
 ! A329  A(52,54,56)           142.4754         estimate D2E/DX2                !
 ! A330  A(52,54,57)           135.8458         estimate D2E/DX2                !
 ! A331  A(53,54,55)           118.4186         estimate D2E/DX2                !
 ! A332  A(53,54,56)           113.7672         estimate D2E/DX2                !
 ! A333  A(53,54,57)            96.7317         estimate D2E/DX2                !
 ! A334  A(55,54,56)            88.0759         estimate D2E/DX2                !
 ! A335  A(27,55,54)            79.2618         estimate D2E/DX2                !
 ! A336  A(27,55,57)            80.8666         estimate D2E/DX2                !
 ! A337  A(27,56,54)            79.8814         estimate D2E/DX2                !
 ! A338  A(27,56,57)            81.0305         estimate D2E/DX2                !
 ! A339  A(31,57,54)           140.1667         estimate D2E/DX2                !
 ! A340  A(31,57,55)           133.5444         estimate D2E/DX2                !
 ! A341  A(31,57,56)            88.087          estimate D2E/DX2                !
 ! A342  A(31,57,58)           104.8545         estimate D2E/DX2                !
 ! A343  A(31,57,64)            81.7483         estimate D2E/DX2                !
 ! A344  A(54,57,58)            95.3381         estimate D2E/DX2                !
 ! A345  A(54,57,64)           130.5562         estimate D2E/DX2                !
 ! A346  A(55,57,56)            88.7669         estimate D2E/DX2                !
 ! A347  A(55,57,58)           119.3161         estimate D2E/DX2                !
 ! A348  A(55,57,64)            80.4274         estimate D2E/DX2                !
 ! A349  A(56,57,58)           111.3046         estimate D2E/DX2                !
 ! A350  A(56,57,64)           152.8781         estimate D2E/DX2                !
 ! A351  A(58,57,64)            95.6277         estimate D2E/DX2                !
 ! A352  A(18,62,39)            87.9876         estimate D2E/DX2                !
 ! A353  A(21,63,51)            87.6189         estimate D2E/DX2                !
 ! A354  A(57,64,65)           100.6624         estimate D2E/DX2                !
 ! A355  A(57,64,66)           100.7796         estimate D2E/DX2                !
 ! A356  A(65,64,66)            94.532          estimate D2E/DX2                !
 ! A357  L(51,54,57,53,-1)     179.837          estimate D2E/DX2                !
 ! A358  L(51,54,57,53,-2)     174.3576         estimate D2E/DX2                !
 ! D1    D(3,1,2,12)           176.5944         estimate D2E/DX2                !
 ! D2    D(4,1,2,12)           -28.9502         estimate D2E/DX2                !
 ! D3    D(5,1,2,12)            40.4673         estimate D2E/DX2                !
 ! D4    D(8,1,2,12)           -97.1665         estimate D2E/DX2                !
 ! D5    D(46,1,2,12)          114.486          estimate D2E/DX2                !
 ! D6    D(2,1,3,45)           174.5875         estimate D2E/DX2                !
 ! D7    D(2,1,3,48)           -94.2526         estimate D2E/DX2                !
 ! D8    D(4,1,3,45)            20.3805         estimate D2E/DX2                !
 ! D9    D(4,1,3,48)           111.5403         estimate D2E/DX2                !
 ! D10   D(5,1,3,45)          -114.1543         estimate D2E/DX2                !
 ! D11   D(5,1,3,48)           -22.9944         estimate D2E/DX2                !
 ! D12   D(8,1,3,45)            91.7622         estimate D2E/DX2                !
 ! D13   D(8,1,3,48)          -177.0779         estimate D2E/DX2                !
 ! D14   D(21,1,3,45)         -135.7364         estimate D2E/DX2                !
 ! D15   D(21,1,3,48)          -44.5766         estimate D2E/DX2                !
 ! D16   D(46,1,3,45)          -44.5686         estimate D2E/DX2                !
 ! D17   D(46,1,3,48)           46.5913         estimate D2E/DX2                !
 ! D18   D(2,1,4,6)           -109.9096         estimate D2E/DX2                !
 ! D19   D(2,1,4,9)            -26.4957         estimate D2E/DX2                !
 ! D20   D(3,1,4,6)             32.4028         estimate D2E/DX2                !
 ! D21   D(3,1,4,9)            115.8167         estimate D2E/DX2                !
 ! D22   D(5,1,4,6)           -178.9576         estimate D2E/DX2                !
 ! D23   D(5,1,4,9)            -95.5437         estimate D2E/DX2                !
 ! D24   D(8,1,4,6)            -40.938          estimate D2E/DX2                !
 ! D25   D(8,1,4,9)             42.4759         estimate D2E/DX2                !
 ! D26   D(21,1,4,6)           179.3266         estimate D2E/DX2                !
 ! D27   D(21,1,4,9)           -97.2595         estimate D2E/DX2                !
 ! D28   D(46,1,4,6)            94.6589         estimate D2E/DX2                !
 ! D29   D(46,1,4,9)           178.0728         estimate D2E/DX2                !
 ! D30   D(2,1,5,12)           -40.7979         estimate D2E/DX2                !
 ! D31   D(3,1,5,12)          -113.034          estimate D2E/DX2                !
 ! D32   D(4,1,5,12)            97.2566         estimate D2E/DX2                !
 ! D33   D(8,1,5,12)            29.1709         estimate D2E/DX2                !
 ! D34   D(46,1,5,12)         -178.8462         estimate D2E/DX2                !
 ! D35   D(2,1,8,6)            179.1009         estimate D2E/DX2                !
 ! D36   D(2,1,8,9)             95.9959         estimate D2E/DX2                !
 ! D37   D(3,1,8,6)            -96.7904         estimate D2E/DX2                !
 ! D38   D(3,1,8,9)           -179.8953         estimate D2E/DX2                !
 ! D39   D(4,1,8,6)             40.8629         estimate D2E/DX2                !
 ! D40   D(4,1,8,9)            -42.242          estimate D2E/DX2                !
 ! D41   D(5,1,8,6)            109.6075         estimate D2E/DX2                !
 ! D42   D(5,1,8,9)             26.5025         estimate D2E/DX2                !
 ! D43   D(21,1,8,6)          -179.2859         estimate D2E/DX2                !
 ! D44   D(21,1,8,9)            97.6091         estimate D2E/DX2                !
 ! D45   D(46,1,8,6)           -30.6671         estimate D2E/DX2                !
 ! D46   D(46,1,8,9)          -113.7721         estimate D2E/DX2                !
 ! D47   D(3,1,21,22)          -91.8984         estimate D2E/DX2                !
 ! D48   D(3,1,21,23)            0.2062         estimate D2E/DX2                !
 ! D49   D(3,1,21,48)           43.9532         estimate D2E/DX2                !
 ! D50   D(3,1,21,49)           84.7696         estimate D2E/DX2                !
 ! D51   D(3,1,21,63)          164.161          estimate D2E/DX2                !
 ! D52   D(4,1,21,22)          110.6141         estimate D2E/DX2                !
 ! D53   D(4,1,21,23)         -157.2813         estimate D2E/DX2                !
 ! D54   D(4,1,21,48)         -113.5343         estimate D2E/DX2                !
 ! D55   D(4,1,21,49)          -72.7179         estimate D2E/DX2                !
 ! D56   D(4,1,21,63)            6.6735         estimate D2E/DX2                !
 ! D57   D(8,1,21,22)          -10.3116         estimate D2E/DX2                !
 ! D58   D(8,1,21,23)           81.793          estimate D2E/DX2                !
 ! D59   D(8,1,21,48)          125.54           estimate D2E/DX2                !
 ! D60   D(8,1,21,49)          166.3564         estimate D2E/DX2                !
 ! D61   D(8,1,21,63)         -114.2522         estimate D2E/DX2                !
 ! D62   D(46,1,21,22)        -167.88           estimate D2E/DX2                !
 ! D63   D(46,1,21,23)         -75.7754         estimate D2E/DX2                !
 ! D64   D(46,1,21,48)         -32.0284         estimate D2E/DX2                !
 ! D65   D(46,1,21,49)           8.788          estimate D2E/DX2                !
 ! D66   D(46,1,21,63)          88.1794         estimate D2E/DX2                !
 ! D67   D(2,1,46,45)          106.869          estimate D2E/DX2                !
 ! D68   D(2,1,46,48)           13.0119         estimate D2E/DX2                !
 ! D69   D(3,1,46,45)           42.0337         estimate D2E/DX2                !
 ! D70   D(3,1,46,48)          -51.8233         estimate D2E/DX2                !
 ! D71   D(4,1,46,45)          -98.2293         estimate D2E/DX2                !
 ! D72   D(4,1,46,48)          167.9136         estimate D2E/DX2                !
 ! D73   D(5,1,46,45)          179.2032         estimate D2E/DX2                !
 ! D74   D(5,1,46,48)           85.3461         estimate D2E/DX2                !
 ! D75   D(8,1,46,45)          -27.9094         estimate D2E/DX2                !
 ! D76   D(8,1,46,48)         -121.7665         estimate D2E/DX2                !
 ! D77   D(21,1,46,45)         129.3301         estimate D2E/DX2                !
 ! D78   D(21,1,46,48)          35.473          estimate D2E/DX2                !
 ! D79   D(1,2,12,5)           -40.6496         estimate D2E/DX2                !
 ! D80   D(1,2,12,11)           27.2388         estimate D2E/DX2                !
 ! D81   D(1,2,12,14)          179.806          estimate D2E/DX2                !
 ! D82   D(1,2,12,15)           97.837          estimate D2E/DX2                !
 ! D83   D(1,2,12,51)         -132.1368         estimate D2E/DX2                !
 ! D84   D(1,2,12,52)         -113.5615         estimate D2E/DX2                !
 ! D85   D(21,2,12,5)           37.3502         estimate D2E/DX2                !
 ! D86   D(21,2,12,11)         105.2386         estimate D2E/DX2                !
 ! D87   D(21,2,12,14)        -102.1942         estimate D2E/DX2                !
 ! D88   D(21,2,12,15)         175.8369         estimate D2E/DX2                !
 ! D89   D(21,2,12,51)         -54.137          estimate D2E/DX2                !
 ! D90   D(21,2,12,52)         -35.5617         estimate D2E/DX2                !
 ! D91   D(12,2,21,5)          -38.6416         estimate D2E/DX2                !
 ! D92   D(12,2,21,22)          91.2409         estimate D2E/DX2                !
 ! D93   D(12,2,21,23)         175.4503         estimate D2E/DX2                !
 ! D94   D(12,2,21,48)        -134.878          estimate D2E/DX2                !
 ! D95   D(12,2,21,49)        -105.9061         estimate D2E/DX2                !
 ! D96   D(12,2,21,63)          53.2261         estimate D2E/DX2                !
 ! D97   D(1,3,45,43)          -94.3114         estimate D2E/DX2                !
 ! D98   D(1,3,45,44)          -15.8755         estimate D2E/DX2                !
 ! D99   D(1,3,45,46)           45.261          estimate D2E/DX2                !
 ! D100  D(1,3,45,47)          153.4248         estimate D2E/DX2                !
 ! D101  D(48,3,45,43)        -173.6248         estimate D2E/DX2                !
 ! D102  D(48,3,45,44)         -95.1889         estimate D2E/DX2                !
 ! D103  D(48,3,45,46)         -34.0524         estimate D2E/DX2                !
 ! D104  D(48,3,45,47)          74.1114         estimate D2E/DX2                !
 ! D105  D(1,3,48,21)           46.4531         estimate D2E/DX2                !
 ! D106  D(1,3,48,23)          100.4589         estimate D2E/DX2                !
 ! D107  D(1,3,48,46)          -48.3911         estimate D2E/DX2                !
 ! D108  D(1,3,48,49)           17.0832         estimate D2E/DX2                !
 ! D109  D(1,3,48,50)         -153.1353         estimate D2E/DX2                !
 ! D110  D(45,3,48,21)         129.5502         estimate D2E/DX2                !
 ! D111  D(45,3,48,23)        -176.444          estimate D2E/DX2                !
 ! D112  D(45,3,48,46)          34.706          estimate D2E/DX2                !
 ! D113  D(45,3,48,49)         100.1803         estimate D2E/DX2                !
 ! D114  D(45,3,48,50)         -70.0382         estimate D2E/DX2                !
 ! D115  D(1,4,6,7)            179.1635         estimate D2E/DX2                !
 ! D116  D(1,4,6,8)             40.7955         estimate D2E/DX2                !
 ! D117  D(1,4,6,16)           108.7605         estimate D2E/DX2                !
 ! D118  D(1,4,6,43)           -35.5638         estimate D2E/DX2                !
 ! D119  D(1,4,6,44)           -93.9671         estimate D2E/DX2                !
 ! D120  D(9,4,6,7)             95.6956         estimate D2E/DX2                !
 ! D121  D(9,4,6,8)            -42.6724         estimate D2E/DX2                !
 ! D122  D(9,4,6,16)            25.2927         estimate D2E/DX2                !
 ! D123  D(9,4,6,43)          -119.0316         estimate D2E/DX2                !
 ! D124  D(9,4,6,44)          -177.4349         estimate D2E/DX2                !
 ! D125  D(1,4,9,8)            -41.9593         estimate D2E/DX2                !
 ! D126  D(1,4,9,10)          -179.6615         estimate D2E/DX2                !
 ! D127  D(1,4,9,11)            95.9046         estimate D2E/DX2                !
 ! D128  D(1,4,9,15)            28.852          estimate D2E/DX2                !
 ! D129  D(1,4,9,26)          -110.8305         estimate D2E/DX2                !
 ! D130  D(6,4,9,8)             42.3017         estimate D2E/DX2                !
 ! D131  D(6,4,9,10)           -95.4004         estimate D2E/DX2                !
 ! D132  D(6,4,9,11)          -179.8344         estimate D2E/DX2                !
 ! D133  D(6,4,9,15)           113.1131         estimate D2E/DX2                !
 ! D134  D(6,4,9,26)           -26.5694         estimate D2E/DX2                !
 ! D135  D(1,5,12,2)            40.487          estimate D2E/DX2                !
 ! D136  D(1,5,12,11)          -97.6086         estimate D2E/DX2                !
 ! D137  D(1,5,12,14)          114.2267         estimate D2E/DX2                !
 ! D138  D(1,5,12,15)          -30.2103         estimate D2E/DX2                !
 ! D139  D(1,5,12,51)          133.7949         estimate D2E/DX2                !
 ! D140  D(1,5,12,52)          171.7676         estimate D2E/DX2                !
 ! D141  D(21,5,12,2)          -37.0013         estimate D2E/DX2                !
 ! D142  D(21,5,12,11)        -175.0969         estimate D2E/DX2                !
 ! D143  D(21,5,12,14)          36.7384         estimate D2E/DX2                !
 ! D144  D(21,5,12,15)        -107.6986         estimate D2E/DX2                !
 ! D145  D(21,5,12,51)          56.3066         estimate D2E/DX2                !
 ! D146  D(21,5,12,52)          94.2793         estimate D2E/DX2                !
 ! D147  D(12,5,21,2)           38.9729         estimate D2E/DX2                !
 ! D148  D(12,5,21,22)         -54.6735         estimate D2E/DX2                !
 ! D149  D(12,5,21,23)         122.66           estimate D2E/DX2                !
 ! D150  D(12,5,21,48)         143.3981         estimate D2E/DX2                !
 ! D151  D(12,5,21,49)        -171.5118         estimate D2E/DX2                !
 ! D152  D(12,5,21,63)         -92.8712         estimate D2E/DX2                !
 ! D153  D(4,6,7,13)           -97.2813         estimate D2E/DX2                !
 ! D154  D(4,6,7,18)          -178.8522         estimate D2E/DX2                !
 ! D155  D(8,6,7,13)           -28.3323         estimate D2E/DX2                !
 ! D156  D(8,6,7,18)          -109.9032         estimate D2E/DX2                !
 ! D157  D(16,6,7,13)           40.6735         estimate D2E/DX2                !
 ! D158  D(16,6,7,18)          -40.8975         estimate D2E/DX2                !
 ! D159  D(43,6,7,13)          113.8715         estimate D2E/DX2                !
 ! D160  D(43,6,7,18)           32.3006         estimate D2E/DX2                !
 ! D161  D(44,6,7,13)          179.5908         estimate D2E/DX2                !
 ! D162  D(44,6,7,18)           98.0199         estimate D2E/DX2                !
 ! D163  D(4,6,8,1)            -41.0624         estimate D2E/DX2                !
 ! D164  D(4,6,8,9)             42.4778         estimate D2E/DX2                !
 ! D165  D(7,6,8,1)           -111.0168         estimate D2E/DX2                !
 ! D166  D(7,6,8,9)            -27.4766         estimate D2E/DX2                !
 ! D167  D(16,6,8,1)          -179.8869         estimate D2E/DX2                !
 ! D168  D(16,6,8,9)           -96.3466         estimate D2E/DX2                !
 ! D169  D(43,6,8,1)            96.7703         estimate D2E/DX2                !
 ! D170  D(43,6,8,9)          -179.6894         estimate D2E/DX2                !
 ! D171  D(44,6,8,1)            30.0973         estimate D2E/DX2                !
 ! D172  D(44,6,8,9)           113.6375         estimate D2E/DX2                !
 ! D173  D(4,6,16,13)           30.5861         estimate D2E/DX2                !
 ! D174  D(4,6,16,18)          114.0672         estimate D2E/DX2                !
 ! D175  D(7,6,16,13)          -40.4679         estimate D2E/DX2                !
 ! D176  D(7,6,16,18)           43.0131         estimate D2E/DX2                !
 ! D177  D(8,6,16,13)           98.0594         estimate D2E/DX2                !
 ! D178  D(8,6,16,18)         -178.4596         estimate D2E/DX2                !
 ! D179  D(43,6,16,13)        -173.3349         estimate D2E/DX2                !
 ! D180  D(43,6,16,18)         -89.8538         estimate D2E/DX2                !
 ! D181  D(44,6,16,13)        -115.1035         estimate D2E/DX2                !
 ! D182  D(44,6,16,18)         -31.6224         estimate D2E/DX2                !
 ! D183  D(4,6,43,42)         -107.4328         estimate D2E/DX2                !
 ! D184  D(4,6,43,45)          -14.4303         estimate D2E/DX2                !
 ! D185  D(7,6,43,42)           24.4831         estimate D2E/DX2                !
 ! D186  D(7,6,43,45)          117.4856         estimate D2E/DX2                !
 ! D187  D(8,6,43,42)          178.9747         estimate D2E/DX2                !
 ! D188  D(8,6,43,45)          -88.0228         estimate D2E/DX2                !
 ! D189  D(16,6,43,42)          96.9596         estimate D2E/DX2                !
 ! D190  D(16,6,43,45)        -170.0379         estimate D2E/DX2                !
 ! D191  D(44,6,43,42)         -46.1855         estimate D2E/DX2                !
 ! D192  D(44,6,43,45)          46.817          estimate D2E/DX2                !
 ! D193  D(4,6,44,42)         -167.548          estimate D2E/DX2                !
 ! D194  D(4,6,44,45)           97.6003         estimate D2E/DX2                !
 ! D195  D(7,6,44,42)          -83.9932         estimate D2E/DX2                !
 ! D196  D(7,6,44,45)         -178.8449         estimate D2E/DX2                !
 ! D197  D(8,6,44,42)          122.2258         estimate D2E/DX2                !
 ! D198  D(8,6,44,45)           27.3741         estimate D2E/DX2                !
 ! D199  D(16,6,44,42)         -11.0933         estimate D2E/DX2                !
 ! D200  D(16,6,44,45)        -105.945          estimate D2E/DX2                !
 ! D201  D(43,6,44,42)          50.043          estimate D2E/DX2                !
 ! D202  D(43,6,44,45)         -44.8087         estimate D2E/DX2                !
 ! D203  D(6,7,13,10)           97.2937         estimate D2E/DX2                !
 ! D204  D(6,7,13,16)          -40.4033         estimate D2E/DX2                !
 ! D205  D(6,7,13,26)           28.7248         estimate D2E/DX2                !
 ! D206  D(6,7,13,37)         -176.126          estimate D2E/DX2                !
 ! D207  D(6,7,13,38)         -114.996          estimate D2E/DX2                !
 ! D208  D(18,7,13,10)         179.9092         estimate D2E/DX2                !
 ! D209  D(18,7,13,16)          42.2123         estimate D2E/DX2                !
 ! D210  D(18,7,13,26)         111.3404         estimate D2E/DX2                !
 ! D211  D(18,7,13,37)         -93.5105         estimate D2E/DX2                !
 ! D212  D(18,7,13,38)         -32.3804         estimate D2E/DX2                !
 ! D213  D(6,7,18,16)           41.2401         estimate D2E/DX2                !
 ! D214  D(6,7,18,19)         -100.5332         estimate D2E/DX2                !
 ! D215  D(6,7,18,20)          -36.8669         estimate D2E/DX2                !
 ! D216  D(6,7,18,40)          176.585          estimate D2E/DX2                !
 ! D217  D(6,7,18,42)          -56.6446         estimate D2E/DX2                !
 ! D218  D(6,7,18,62)          133.166          estimate D2E/DX2                !
 ! D219  D(13,7,18,16)         -42.863          estimate D2E/DX2                !
 ! D220  D(13,7,18,19)         175.3637         estimate D2E/DX2                !
 ! D221  D(13,7,18,20)        -120.97           estimate D2E/DX2                !
 ! D222  D(13,7,18,40)          92.4819         estimate D2E/DX2                !
 ! D223  D(13,7,18,42)        -140.7477         estimate D2E/DX2                !
 ! D224  D(13,7,18,62)          49.0629         estimate D2E/DX2                !
 ! D225  D(1,8,9,4)             42.2544         estimate D2E/DX2                !
 ! D226  D(1,8,9,10)           111.9852         estimate D2E/DX2                !
 ! D227  D(1,8,9,11)           -26.0206         estimate D2E/DX2                !
 ! D228  D(1,8,9,15)           -95.6929         estimate D2E/DX2                !
 ! D229  D(1,8,9,26)          -179.283          estimate D2E/DX2                !
 ! D230  D(6,8,9,4)            -42.2805         estimate D2E/DX2                !
 ! D231  D(6,8,9,10)            27.4502         estimate D2E/DX2                !
 ! D232  D(6,8,9,11)          -110.5556         estimate D2E/DX2                !
 ! D233  D(6,8,9,15)           179.7722         estimate D2E/DX2                !
 ! D234  D(6,8,9,26)            96.1821         estimate D2E/DX2                !
 ! D235  D(4,9,10,13)           96.2228         estimate D2E/DX2                !
 ! D236  D(4,9,10,24)         -179.7255         estimate D2E/DX2                !
 ! D237  D(8,9,10,13)           27.8433         estimate D2E/DX2                !
 ! D238  D(8,9,10,24)          111.8951         estimate D2E/DX2                !
 ! D239  D(11,9,10,13)         179.0486         estimate D2E/DX2                !
 ! D240  D(11,9,10,24)         -96.8997         estimate D2E/DX2                !
 ! D241  D(15,9,10,13)        -111.8854         estimate D2E/DX2                !
 ! D242  D(15,9,10,24)         -27.8337         estimate D2E/DX2                !
 ! D243  D(26,9,10,13)         -41.909          estimate D2E/DX2                !
 ! D244  D(26,9,10,24)          42.1427         estimate D2E/DX2                !
 ! D245  D(4,9,11,12)          -97.2289         estimate D2E/DX2                !
 ! D246  D(4,9,11,27)          179.4841         estimate D2E/DX2                !
 ! D247  D(8,9,11,12)          -29.8895         estimate D2E/DX2                !
 ! D248  D(8,9,11,27)         -113.1765         estimate D2E/DX2                !
 ! D249  D(10,9,11,12)         178.7711         estimate D2E/DX2                !
 ! D250  D(10,9,11,27)          95.4841         estimate D2E/DX2                !
 ! D251  D(15,9,11,12)          41.4749         estimate D2E/DX2                !
 ! D252  D(15,9,11,27)         -41.8121         estimate D2E/DX2                !
 ! D253  D(26,9,11,12)         110.0168         estimate D2E/DX2                !
 ! D254  D(26,9,11,27)          26.7298         estimate D2E/DX2                !
 ! D255  D(4,9,15,12)           26.0732         estimate D2E/DX2                !
 ! D256  D(4,9,15,27)          109.4631         estimate D2E/DX2                !
 ! D257  D(8,9,15,12)           95.1877         estimate D2E/DX2                !
 ! D258  D(8,9,15,27)          178.5777         estimate D2E/DX2                !
 ! D259  D(10,9,15,12)        -112.3878         estimate D2E/DX2                !
 ! D260  D(10,9,15,27)         -28.9979         estimate D2E/DX2                !
 ! D261  D(11,9,15,12)         -41.8514         estimate D2E/DX2                !
 ! D262  D(11,9,15,27)          41.5385         estimate D2E/DX2                !
 ! D263  D(26,9,15,12)         178.693          estimate D2E/DX2                !
 ! D264  D(26,9,15,27)         -97.917          estimate D2E/DX2                !
 ! D265  D(4,9,26,13)          -28.2628         estimate D2E/DX2                !
 ! D266  D(4,9,26,24)         -112.0641         estimate D2E/DX2                !
 ! D267  D(8,9,26,13)          -95.9438         estimate D2E/DX2                !
 ! D268  D(8,9,26,24)         -179.7451         estimate D2E/DX2                !
 ! D269  D(10,9,26,13)          41.7119         estimate D2E/DX2                !
 ! D270  D(10,9,26,24)         -42.0894         estimate D2E/DX2                !
 ! D271  D(11,9,26,13)         111.7256         estimate D2E/DX2                !
 ! D272  D(11,9,26,24)          27.9243         estimate D2E/DX2                !
 ! D273  D(15,9,26,13)         179.1219         estimate D2E/DX2                !
 ! D274  D(15,9,26,24)          95.3206         estimate D2E/DX2                !
 ! D275  D(9,10,13,7)          -96.5158         estimate D2E/DX2                !
 ! D276  D(9,10,13,16)         -26.9121         estimate D2E/DX2                !
 ! D277  D(9,10,13,26)          41.9212         estimate D2E/DX2                !
 ! D278  D(9,10,13,37)         179.6665         estimate D2E/DX2                !
 ! D279  D(9,10,13,38)         113.6504         estimate D2E/DX2                !
 ! D280  D(24,10,13,7)        -179.1825         estimate D2E/DX2                !
 ! D281  D(24,10,13,16)       -109.5789         estimate D2E/DX2                !
 ! D282  D(24,10,13,26)        -40.7455         estimate D2E/DX2                !
 ! D283  D(24,10,13,37)         96.9998         estimate D2E/DX2                !
 ! D284  D(24,10,13,38)         30.9837         estimate D2E/DX2                !
 ! D285  D(9,10,24,17)        -114.706          estimate D2E/DX2                !
 ! D286  D(9,10,24,25)         179.1682         estimate D2E/DX2                !
 ! D287  D(9,10,24,26)         -42.426          estimate D2E/DX2                !
 ! D288  D(9,10,24,28)          96.5649         estimate D2E/DX2                !
 ! D289  D(9,10,24,29)          27.8688         estimate D2E/DX2                !
 ! D290  D(13,10,24,17)        -31.2767         estimate D2E/DX2                !
 ! D291  D(13,10,24,25)        -97.4025         estimate D2E/DX2                !
 ! D292  D(13,10,24,26)         41.0033         estimate D2E/DX2                !
 ! D293  D(13,10,24,28)        179.9942         estimate D2E/DX2                !
 ! D294  D(13,10,24,29)        111.2981         estimate D2E/DX2                !
 ! D295  D(9,11,12,2)           29.206          estimate D2E/DX2                !
 ! D296  D(9,11,12,5)           97.0543         estimate D2E/DX2                !
 ! D297  D(9,11,12,14)        -111.9689         estimate D2E/DX2                !
 ! D298  D(9,11,12,15)         -42.271          estimate D2E/DX2                !
 ! D299  D(9,11,12,51)        -177.4541         estimate D2E/DX2                !
 ! D300  D(9,11,12,52)         179.6802         estimate D2E/DX2                !
 ! D301  D(27,11,12,2)         113.4854         estimate D2E/DX2                !
 ! D302  D(27,11,12,5)        -178.6663         estimate D2E/DX2                !
 ! D303  D(27,11,12,14)        -27.6895         estimate D2E/DX2                !
 ! D304  D(27,11,12,15)         42.0084         estimate D2E/DX2                !
 ! D305  D(27,11,12,51)        -93.1747         estimate D2E/DX2                !
 ! D306  D(27,11,12,52)        -96.0403         estimate D2E/DX2                !
 ! D307  D(9,11,27,15)          41.9546         estimate D2E/DX2                !
 ! D308  D(9,11,27,28)         -94.3412         estimate D2E/DX2                !
 ! D309  D(9,11,27,29)         -23.3223         estimate D2E/DX2                !
 ! D310  D(9,11,27,55)         179.7643         estimate D2E/DX2                !
 ! D311  D(9,11,27,56)         117.6038         estimate D2E/DX2                !
 ! D312  D(12,11,27,15)        -41.3591         estimate D2E/DX2                !
 ! D313  D(12,11,27,28)       -177.6549         estimate D2E/DX2                !
 ! D314  D(12,11,27,29)       -106.636          estimate D2E/DX2                !
 ! D315  D(12,11,27,55)         96.4506         estimate D2E/DX2                !
 ! D316  D(12,11,27,56)         34.2901         estimate D2E/DX2                !
 ! D317  D(2,12,14,54)         178.6054         estimate D2E/DX2                !
 ! D318  D(5,12,14,54)         106.7018         estimate D2E/DX2                !
 ! D319  D(11,12,14,54)        -27.9871         estimate D2E/DX2                !
 ! D320  D(15,12,14,54)        -97.5117         estimate D2E/DX2                !
 ! D321  D(52,12,14,54)         46.5174         estimate D2E/DX2                !
 ! D322  D(2,12,15,9)          -95.1437         estimate D2E/DX2                !
 ! D323  D(2,12,15,27)        -178.8332         estimate D2E/DX2                !
 ! D324  D(5,12,15,9)          -25.3557         estimate D2E/DX2                !
 ! D325  D(5,12,15,27)        -109.0452         estimate D2E/DX2                !
 ! D326  D(11,12,15,9)          42.0226         estimate D2E/DX2                !
 ! D327  D(11,12,15,27)        -41.6669         estimate D2E/DX2                !
 ! D328  D(14,12,15,9)         177.9973         estimate D2E/DX2                !
 ! D329  D(14,12,15,27)         94.3079         estimate D2E/DX2                !
 ! D330  D(51,12,15,9)         175.7615         estimate D2E/DX2                !
 ! D331  D(51,12,15,27)         92.072          estimate D2E/DX2                !
 ! D332  D(52,12,15,9)         121.5519         estimate D2E/DX2                !
 ! D333  D(52,12,15,27)         37.8624         estimate D2E/DX2                !
 ! D334  D(2,12,51,22)          13.88           estimate D2E/DX2                !
 ! D335  D(2,12,51,54)        -141.5849         estimate D2E/DX2                !
 ! D336  D(2,12,51,60)        -138.8055         estimate D2E/DX2                !
 ! D337  D(2,12,51,63)          64.5877         estimate D2E/DX2                !
 ! D338  D(5,12,51,22)         -67.2142         estimate D2E/DX2                !
 ! D339  D(5,12,51,54)         137.3208         estimate D2E/DX2                !
 ! D340  D(5,12,51,60)         140.1003         estimate D2E/DX2                !
 ! D341  D(5,12,51,63)         -16.5065         estimate D2E/DX2                !
 ! D342  D(11,12,51,22)       -147.4453         estimate D2E/DX2                !
 ! D343  D(11,12,51,54)         57.0898         estimate D2E/DX2                !
 ! D344  D(11,12,51,60)         59.8692         estimate D2E/DX2                !
 ! D345  D(11,12,51,63)        -96.7376         estimate D2E/DX2                !
 ! D346  D(15,12,51,22)         98.2209         estimate D2E/DX2                !
 ! D347  D(15,12,51,54)        -57.2441         estimate D2E/DX2                !
 ! D348  D(15,12,51,60)        -54.4646         estimate D2E/DX2                !
 ! D349  D(15,12,51,63)        148.9286         estimate D2E/DX2                !
 ! D350  D(2,12,52,54)        -118.2072         estimate D2E/DX2                !
 ! D351  D(5,12,52,54)         169.633          estimate D2E/DX2                !
 ! D352  D(11,12,52,54)         88.5466         estimate D2E/DX2                !
 ! D353  D(14,12,52,54)        -46.5115         estimate D2E/DX2                !
 ! D354  D(15,12,52,54)         12.217          estimate D2E/DX2                !
 ! D355  D(7,13,16,6)           40.6683         estimate D2E/DX2                !
 ! D356  D(7,13,16,18)         -44.4496         estimate D2E/DX2                !
 ! D357  D(10,13,16,6)         -29.2992         estimate D2E/DX2                !
 ! D358  D(10,13,16,18)       -114.4171         estimate D2E/DX2                !
 ! D359  D(26,13,16,6)         -97.72           estimate D2E/DX2                !
 ! D360  D(26,13,16,18)        177.1621         estimate D2E/DX2                !
 ! D361  D(37,13,16,6)         112.9071         estimate D2E/DX2                !
 ! D362  D(37,13,16,18)         27.7892         estimate D2E/DX2                !
 ! D363  D(38,13,16,6)         178.6574         estimate D2E/DX2                !
 ! D364  D(38,13,16,18)         93.5395         estimate D2E/DX2                !
 ! D365  D(7,13,26,9)           26.9804         estimate D2E/DX2                !
 ! D366  D(7,13,26,24)         109.8618         estimate D2E/DX2                !
 ! D367  D(10,13,26,9)         -42.1404         estimate D2E/DX2                !
 ! D368  D(10,13,26,24)         40.741          estimate D2E/DX2                !
 ! D369  D(16,13,26,9)          95.895          estimate D2E/DX2                !
 ! D370  D(16,13,26,24)        178.7765         estimate D2E/DX2                !
 ! D371  D(37,13,26,9)        -116.2457         estimate D2E/DX2                !
 ! D372  D(37,13,26,24)        -33.3642         estimate D2E/DX2                !
 ! D373  D(38,13,26,9)        -177.3919         estimate D2E/DX2                !
 ! D374  D(38,13,26,24)        -94.5104         estimate D2E/DX2                !
 ! D375  D(7,13,37,36)        -173.8342         estimate D2E/DX2                !
 ! D376  D(7,13,37,39)         104.5202         estimate D2E/DX2                !
 ! D377  D(10,13,37,36)        -91.1288         estimate D2E/DX2                !
 ! D378  D(10,13,37,39)       -172.7744         estimate D2E/DX2                !
 ! D379  D(16,13,37,36)        114.7358         estimate D2E/DX2                !
 ! D380  D(16,13,37,39)         33.0902         estimate D2E/DX2                !
 ! D381  D(26,13,37,36)        -18.929          estimate D2E/DX2                !
 ! D382  D(26,13,37,39)       -100.5745         estimate D2E/DX2                !
 ! D383  D(38,13,37,36)         44.9113         estimate D2E/DX2                !
 ! D384  D(38,13,37,39)        -36.7343         estimate D2E/DX2                !
 ! D385  D(7,13,38,36)        -106.0978         estimate D2E/DX2                !
 ! D386  D(7,13,38,39)         -27.0676         estimate D2E/DX2                !
 ! D387  D(10,13,38,36)         27.9127         estimate D2E/DX2                !
 ! D388  D(10,13,38,39)        106.943          estimate D2E/DX2                !
 ! D389  D(16,13,38,36)       -178.97           estimate D2E/DX2                !
 ! D390  D(16,13,38,39)        -99.9397         estimate D2E/DX2                !
 ! D391  D(26,13,38,36)         98.6977         estimate D2E/DX2                !
 ! D392  D(26,13,38,39)        177.7279         estimate D2E/DX2                !
 ! D393  D(37,13,38,36)        -42.2256         estimate D2E/DX2                !
 ! D394  D(37,13,38,39)         36.8047         estimate D2E/DX2                !
 ! D395  D(12,14,54,52)        -46.9571         estimate D2E/DX2                !
 ! D396  D(12,14,54,53)       -146.297          estimate D2E/DX2                !
 ! D397  D(12,14,54,55)         20.2027         estimate D2E/DX2                !
[...]
 0000427,-0.00000788,-0.00001049,0.00000079,0.00000213,0.00000836,-0.00
 000279,0.00000680,0.00000054,0.00000110,0.00000123,0.00000344,-0.00000
 885,-0.00000429,-0.00000261,0.00000504,0.00001661,-0.00001063,0.000021
 02,0.00000252,0.00000210,-0.00000306,-0.00000067,-0.00000041,-0.000005
 04,-0.00002762,0.00000325,-0.00000500,0.00000415,-0.00000828,0.0000033
 2,0.00000525,-0.00000077,0.00000062,-0.00002856,0.00001103,-0.00000830
 ,0.00000312,0.00001001,0.00000493,0.00000545,-0.00000084,-0.00000008,0
 .00018472,0.00011566,-0.00008321,-0.00006318,0.00011366,-0.00010716,-0
 .00011511,0.00008627,-0.00009155,-0.00014173,-0.00134196,0.00126441,-0
 .00098461,0.00066537,0.00487307,0.00310634,0.00009190,-0.00136759,-0.0
 0759954,-0.00534673,-0.00064777,-0.00020080,0.00030363,-0.00068431,0.0
 0005480,0.00007937,-0.00004362,-0.00005394,0.00000895,-0.00001023,0.00
 000420,0.00000278,-0.00000484,0.00000123,0.00000054,-0.00000805,-0.000
 02339,-0.00001501,0.00000580,-0.02478943,0.28441627,0.00001123,0.00002
 747,0.00000805,-0.00002526,0.00000157,0.00002760,-0.00000027,0.0000097
 5,-0.00000529,0.00001198,0.00001348,-0.00000968,-0.00000940,0.00000972
 ,0.00001827,0.00001143,0.00000140,0.00000938,-0.00001586,-0.00000200,0
 .00000274,-0.00000926,0.00000041,0.00000590,-0.00006410,0.00010120,0.0
 0003836,-0.00000856,0.00004774,0.00001088,0.00013953,-0.00005147,-0.00
 010589,0.00014200,-0.00008833,-0.00017064,0.00004879,0.00003814,-0.000
 00933,0.00003123,-0.00008189,0.00017427,-0.00004410,0.00012344,0.00033
 272,-0.00000904,-0.00000366,0.00000046,-0.00000929,0.00003373,0.000016
 30,0.00000012,0.00000325,0.00000232,0.00000318,0.00000618,0.00000649,0
 .00000444,-0.00000310,-0.00001107,-0.00002602,-0.00001952,0.00000425,0
 .00002413,-0.00002985,-0.00007900,0.00000962,-0.00000198,-0.00000576,-
 0.00024329,-0.00013355,-0.00012724,0.00007142,-0.00012413,0.00001909,-
 0.00007039,-0.00001782,0.00002850,0.00075493,0.00019465,-0.00132818,0.
 00037440,0.00002886,-0.00040192,0.00044814,-0.00009058,-0.00024922,-0.
 00052062,-0.00161807,0.00254292,0.00149037,-0.00227354,0.00332815,0.00
 015761,-0.00014830,-0.00004999,0.00007613,0.00017986,-0.00019654,-0.00
 033242,-0.00015623,-0.00060518,-0.00000432,-0.00000273,0.00000554,0.00
 008614,0.00004626,-0.00001772,-0.00000134,0.00000046,0.00000198,-0.000
 01520,-0.00000175,-0.00000841,-0.00002759,0.00000596,-0.00001324,0.000
 00331,0.00000414,-0.00000105,0.00001182,-0.00001520,0.00001995,-0.0000
 2244,-0.00001124,0.00000788,0.00000206,0.00000059,-0.00000193,0.000000
 63,-0.00000514,-0.00000626,-0.00000308,-0.00001211,0.00002429,-0.00000
 468,-0.00000430,-0.00000388,0.00001471,0.00000712,-0.00001369,-0.00002
 973,-0.00000876,0.00001777,0.00001461,0.00001800,-0.00000357,0.0000164
 8,0.00001198,-0.00002580,0.00011796,0.00022525,0.00006978,-0.00002841,
 0.00009786,-0.00026318,0.00013412,-0.00022227,0.00031150,-0.00029916,-
 0.00003772,0.00126908,0.00449926,0.00373117,-0.00798728,0.00709014,-0.
 00233895,-0.00254175,-0.01946644,0.00524528,-0.01477544,-0.00154929,-0
 .00117734,-0.00178149,0.00000061,-0.00006790,0.00011573,-0.00002109,-0
 .00001557,-0.00001626,0.00002272,0.00000849,-0.00001647,0.00000090,-0.
 00000177,-0.00000377,-0.00001559,-0.00004984,-0.00001379,-0.08647724,-
 0.07403228,0.09543533,-0.00000005,0.00000341,0.00000177,-0.00000031,0.
 00000320,-0.00000408,-0.00000275,-0.00000042,-0.00000202,0.00000196,0.
 00000187,-0.00000075,0.00000461,0.00000566,0.00000068,0.00000103,0.000
 00056,-0.00000202,0.00000255,-0.00000241,-0.00000566,0.00000492,0.0000
 0131,-0.00000126,0.00000137,0.00003017,-0.00000822,0.00002957,-0.00000
 988,-0.00002782,0.00002997,0.00000088,-0.00006507,0.00001925,-0.000002
 90,-0.00003595,-0.00000670,0.00001548,0.00001340,-0.00002806,-0.000026
 79,0.00005282,-0.00000055,0.00009358,0.00007064,0.00000119,-0.00000054
 ,-0.00000013,0.00000607,0.00001269,-0.00001451,0.00000323,-0.00000147,
 0.00000128,-0.00000037,-0.00000069,0.00000439,0.00000011,0.00000092,0.
 00000060,-0.00001507,0.00000390,-0.00000144,0.00000430,-0.00000345,-0.
 00000796,-0.00000042,0.00000542,0.00000185,0.00007557,-0.00001330,0.00
 004064,0.00004637,-0.00004727,-0.00001747,-0.00000370,-0.00002411,0.00
 002321,0.00001655,-0.00006964,-0.00004584,-0.00028552,0.00016995,-0.00
 000172,0.00001929,-0.00006457,0.00001262,-0.00034205,-0.00065510,0.000
 05532,0.00023975,0.00036702,-0.00027114,0.00002753,-0.00003542,0.00002
 891,0.00003680,0.00006289,-0.00002530,-0.00007783,-0.00012556,-0.00020
 780,-0.00000360,0.00000780,-0.00000784,0.00001366,0.00000402,0.0000103
 6,0.00000146,0.00000086,-0.00000426,-0.00000055,0.00000294,-0.00000326
 ,0.00000106,-0.00000196,0.00000398,0.00000031,0.00000070,-0.00000111,-
 0.00000079,0.00000056,-0.00000064,-0.00000748,0.00000058,-0.00000665,-
 0.00000049,-0.00000004,0.00000028,0.00000033,-0.00000042,0.00000175,0.
 00000524,-0.00000121,0.00000158,-0.00000306,0.00000109,-0.00000008,0.0
 0000019,0.00000106,-0.00000190,0.00001011,-0.00000670,0.00000647,0.000
 00006,-0.00000252,-0.00000123,-0.00000019,0.00000187,-0.00000306,-0.00
 003047,-0.00000141,0.00005212,0.00002930,-0.00001034,0.00003089,0.0000
 5669,-0.00000539,0.00000389,-0.00002235,0.00010207,-0.00035125,0.00019
 660,0.00002537,0.00041994,0.00029066,-0.00004670,-0.00003529,0.0004028
 6,0.00010179,-0.00094914,-0.00042448,0.00001834,-0.00030725,-0.0000057
 0,-0.00000511,0.00001972,0.00000316,-0.00000281,0.00000083,0.00000179,
 0.00000008,-0.00000052,0.00000028,0.00000021,-0.00000120,0.00000026,-0
 .00000190,-0.00000161,-0.17237248,-0.08991200,0.09924620,0.16384938,0.
 00000413,-0.00000018,-0.00000620,-0.00000311,0.00000245,0.00000503,0.0
 0000077,0.00000184,0.00000049,0.00000226,-0.00000312,-0.00000030,-0.00
 000399,-0.00000267,-0.00000207,0.00000650,-0.00000025,0.00000094,-0.00
 000398,-0.00000089,0.00000200,-0.00000448,-0.00000298,0.00000232,-0.00
 001104,0.00001684,-0.00000088,-0.00002025,0.00000737,0.00001452,-0.000
 00592,-0.00001671,0.00001093,0.00002665,-0.00002074,0.00004198,0.00000
 737,-0.00000257,-0.00000322,-0.00000197,-0.00001710,-0.00001273,0.0000
 3333,-0.00006366,-0.00009690,-0.00000333,0.00000201,0.00000031,-0.0000
 0146,-0.00000766,0.00000835,-0.00000117,0.00000351,0.00000226,0.000000
 54,0.00000063,0.00000065,0.00000191,-0.00000056,-0.00000376,-0.0000003
 4,-0.00000005,0.00000175,0.00000103,-0.00000082,-0.00000467,0.00000155
 ,-0.00000257,-0.00000456,-0.00006615,0.00001910,0.00002373,-0.00002027
 ,0.00000848,0.00001685,-0.00000935,0.00000656,-0.00001115,-0.00005939,
 0.00002842,0.00001558,0.00004771,-0.00007090,-0.00007414,-0.00003834,0
 .00008208,0.00001977,0.00031429,0.00059754,-0.00003054,-0.00033727,-0.
 00032433,0.00009907,0.00002724,0.00001038,0.00000260,-0.00000682,-0.00
 003576,-0.00000301,0.00001097,0.00011220,0.00003012,0.00000201,-0.0000
 0758,0.00000996,-0.00001130,0.00000209,-0.00001925,-0.00000240,-0.0000
 0216,0.00000226,-0.00000056,-0.00000068,0.00000214,-0.00000436,0.00000
 592,-0.00000753,0.00000053,0.00000088,0.00000114,0.00000436,-0.0000060
 2,0.00000769,-0.00000621,-0.00000335,0.00000224,0.00000035,0.00000091,
 -0.00000047,0.00000078,-0.00000037,-0.00000093,-0.00000487,-0.00000225
 ,0.00000519,-0.00000014,-0.00000085,-0.00000128,0.00000445,0.00000170,
 -0.00000389,-0.00000637,-0.00000229,0.00000581,0.00000015,0.00000333,-
 0.00000164,0.00000424,0.00000299,-0.00000650,0.00001864,-0.00000437,-0
 .00000302,-0.00000895,0.00001490,-0.00000079,0.00003352,0.00004187,0.0
 0000745,-0.00010806,-0.00009620,0.00016950,-0.00009259,0.00022122,-0.0
 0033388,0.00028437,-0.00022757,-0.00004274,0.00127531,0.00222355,-0.00
 049316,0.00006554,-0.00002794,-0.00034329,-0.00000216,-0.00001626,0.00
 002868,-0.00001477,0.00000395,-0.00000418,0.00000645,0.00000246,-0.000
 00468,-0.00000016,-0.00000141,-0.00000034,0.00000128,0.00000521,0.0000
 0147,-0.06651854,-0.07117817,0.04565132,0.08329554,0.07912727,-0.00000
 069,-0.00000320,0.00000063,-0.00000398,0.00000322,0.00000309,-0.000001
 10,0.00000009,-0.00000088,0.00000259,-0.00000249,-0.00000235,-0.000009
 34,-0.00001003,-0.00000453,0.00000072,-0.00000071,0.00000819,0.0000073
 2,-0.00000077,0.00000039,-0.00000450,0.00000329,-0.00000195,-0.0000073
 2,-0.00001277,0.00002082,0.00001985,-0.00003188,-0.00001898,-0.0000624
 0,-0.00000972,0.00004726,0.00003044,-0.00005512,-0.00002452,-0.0000157
 2,0.00000742,-0.00000005,0.00010070,-0.00004460,-0.00007890,0.00003953
 ,-0.00007634,-0.00006229,0.00000358,-0.00000081,-0.00000275,0.00002850
 ,0.00000787,-0.00003227,0.00000101,-0.00000343,-0.00000553,0.00000071,
 -0.00000142,0.00000030,-0.00000297,0.00000203,0.00000689,0.00000753,-0
 .00000181,-0.00000136,0.00000297,0.00000850,-0.00000135,0.00000266,-0.
 00000320,-0.00000025,-0.00004857,0.00001450,0.00014549,0.00000009,-0.0
 0001325,0.00000390,0.00001403,0.00000659,-0.00001790,-0.00030742,0.000
 39165,-0.00026372,0.00006259,0.00009639,-0.00007612,-0.00008324,-0.000
 06465,0.00011351,0.00022880,0.00027990,0.00027767,-0.00069183,0.000348
 69,0.00058426,0.00006415,0.00001644,0.00007359,-0.00007388,-0.00002059
 ,0.00007030,0.00008054,-0.00012884,-0.00016634,0.00000040,0.00001688,-
 0.00002605,0.00002914,-0.00001890,0.00002429,0.00000652,0.00000055,0.0
 0000498,0.00000290,-0.00000526,-0.00000282,0.00000865,-0.00000634,0.00
 000954,-0.00000095,-0.00000277,0.00000063,-0.00000582,0.00000863,-0.00
 001187,0.00000678,0.00000594,-0.00000703,-0.00000117,-0.00000341,-0.00
 000042,-0.00000117,0.00000178,0.00000091,0.00000984,0.00000063,-0.0000
 0194,0.00000019,0.00000141,-0.00000191,-0.00000597,-0.00000208,0.00000
 469,-0.00000696,0.00000738,-0.00001063,-0.00000004,0.00000230,0.000000
 70,-0.00000417,-0.00000465,0.00000847,-0.00003259,-0.00003717,-0.00001
 193,-0.00001076,0.00003854,-0.00000903,0.00010900,0.00008973,0.0000148
 7,0.00003785,0.00024276,0.00050620,0.00012535,-0.00020421,-0.00307472,
 0.00016594,-0.00044796,0.00028331,0.00491505,0.00354085,-0.00341491,-0
 .00100859,0.00010227,0.00023835,0.00000235,0.00003757,-0.00005286,0.00
 003014,-0.00000021,-0.00000360,-0.00000943,-0.00000366,0.00000680,-0.0
 0000029,0.00000128,0.00000242,0.00000486,-0.00000074,-0.00000176,0.085
 48421,0.04971222,-0.05710226,-0.09094555,-0.05474804,0.06401534,-0.000
 01107,0.00000006,0.00000261,-0.00000459,0.00000859,-0.00000260,-0.0000
 0168,-0.00000097,-0.00000146,-0.00000290,0.00000843,0.00000289,0.00000
 306,0.00000403,-0.00000168,-0.00000042,-0.00000475,0.00000120,0.000002
 64,0.00000289,-0.00000676,0.00000340,0.00000259,-0.00000216,0.00000408
 ,0.00000123,0.00001088,0.00002821,0.00003765,0.00000366,0.00001001,0.0
 0002008,-0.00000615,0.00000836,-0.00006386,-0.00000310,-0.00002418,0.0
 0000308,0.00002419,0.00001544,0.00001833,-0.00002858,0.00000800,0.0000
 5780,0.00006158,0.00000246,0.,-0.00000325,-0.00008782,-0.00009820,0.00
 014841,-0.00000136,-0.00000334,-0.00000715,-0.00000163,-0.00000211,0.0
 0000125,-0.00000219,0.00000069,0.00000615,0.00001360,-0.00000200,-0.00
 000012,-0.00000258,0.00000173,0.00000076,-0.00000235,0.00000181,0.0000
 0155,0.00002369,-0.00004745,-0.00003350,0.00002443,-0.00003082,0.00000
 545,0.00000528,-0.00001577,0.00001067,-0.00020074,0.00000528,-0.000071
 83,-0.00018321,0.00005964,-0.00000299,0.00010737,-0.00004444,0.0000786
 5,-0.00037984,-0.00151735,-0.00108528,0.00118051,-0.00048594,0.0002844
 7,0.00007722,-0.00000241,0.00000584,0.00049014,0.00008414,-0.00031363,
 -0.00089293,0.00055819,0.00010962,-0.00000605,0.00000656,-0.00000642,0
 .00000205,-0.00000991,0.00001165,0.00000582,0.00000546,-0.00000320,0.0
 0000504,-0.00000916,0.00000385,0.00000395,-0.00000197,-0.00000240,-0.0
 0000192,-0.00000230,0.00000418,-0.00000407,0.00000580,-0.00000659,0.00
 000292,0.00000775,-0.00000674,-0.00000091,-0.00000291,-0.00000090,-0.0
 0000076,0.00000051,0.00000168,0.00001000,0.00000031,-0.00000431,-0.000
 00123,0.00000157,0.00000308,-0.00000604,-0.00000210,0.00000535,-0.0000
 0476,0.00000560,-0.00000810,-0.00000023,-0.00000454,0.00000235,-0.0000
 0463,-0.00000390,0.00000836,-0.00000234,0.00000016,-0.00002391,-0.0000
 1375,0.00000013,0.00000954,-0.00006265,0.00002981,0.00001456,0.0000259
 5,-0.00024944,0.00039202,-0.00019362,-0.00007870,0.00019684,0.00026852
 ,-0.00005352,-0.00005532,0.00051495,-0.00030119,-0.00030573,-0.0004363
 6,-0.00010895,0.00018910,0.00001525,-0.00006074,-0.00000492,-0.0000004
 1,0.00000570,-0.00000721,-0.00000865,-0.00000342,0.00000642,-0.0000013
 3,0.00000069,0.00000487,0.00000300,0.00000498,0.00000213,-0.08330998,0
 .11978590,-0.00571887,0.00819963,-0.01810368,0.00170892,0.07479419,-0.
 00001693,-0.00000186,0.00000106,0.00000152,-0.00000377,-0.00000784,0.0
 0000186,-0.00000232,0.00000165,0.00000317,0.00000067,0.00000029,-0.000
 00200,0.00000210,-0.00000212,-0.00000326,-0.00000482,0.00000582,0.0000
 0727,0.00000123,0.00000149,0.00000277,0.00000180,-0.00000272,-0.000022
 99,-0.00001512,0.00001181,0.00002293,-0.00002020,-0.00000819,-0.000004
 49,0.00001362,0.00003832,-0.00000161,0.00001692,0.00001613,-0.00000582
 ,0.00000633,-0.00000904,-0.00000423,0.00000122,-0.00000984,0.00003665,
 -0.00001451,-0.00003124,0.00000507,-0.00000338,-0.00000208,-0.00002672
 ,-0.00003369,-0.00000853,-0.00000132,-0.00000201,-0.00000245,-0.000000
 59,-0.00000071,-0.00000646,-0.00000240,0.00000051,0.00000380,0.0000184
 3,0.00000051,0.00000130,-0.00000036,0.00000398,0.00000508,-0.00000055,
 -0.00000252,0.00000232,0.00014612,0.00010110,0.00000127,-0.00001622,0.
 00000942,-0.00004176,0.00000783,-0.00001166,0.00000053,-0.00032521,-0.
 00004872,0.00002094,0.00004728,-0.00000520,0.00009247,-0.00003633,-0.0
 0007092,0.00003247,0.00005539,-0.00087099,-0.00099296,0.00042713,-0.00
 135440,-0.00152332,-0.00013246,0.00008553,0.00000363,-0.00003619,0.000
 03887,0.00013720,-0.00009165,0.00002469,0.00010254,0.00000454,0.000003
 99,-0.00000913,-0.00000035,-0.00000469,0.00000915,0.00000131,-0.000001
 43,0.00000048,0.00000444,-0.00000071,-0.00000281,0.00000826,-0.0000052
 0,0.00000754,-0.00000084,-0.00000119,-0.00000127,-0.00000561,0.0000070
 4,-0.00000890,0.00001629,0.00000384,0.00000357,-0.00000024,-0.00000200
 ,-0.00000027,-0.00000174,0.00000152,-0.00000041,0.00000348,0.00000448,
 -0.00000800,0.00000126,-0.00000022,0.00000223,-0.00000682,-0.00000364,
 0.00000743,-0.00000328,0.00000892,-0.00001451,-0.00000265,-0.00000628,
 0.00000344,-0.00000639,-0.00000629,0.00001236,-0.00002139,0.00003389,-
 0.00002319,-0.00001378,-0.00003103,-0.00005588,0.00006256,0.00003183,-
 0.00004355,-0.00011275,0.00019184,-0.00013979,-0.00004633,0.00037103,0
 .00056307,-0.00002489,0.00030388,0.00012918,0.00163319,-0.00304372,0.0
 0060621,-0.00051282,0.00030581,0.00034301,0.00002728,0.00001736,-0.000
 06574,0.00003574,-0.00001556,0.00001338,-0.00001071,-0.00000338,0.0000
 0690,-0.00000010,0.00000164,0.00000064,-0.00000826,-0.00000724,0.00000
 005,0.09161163,-0.19552232,0.02697419,0.00673821,-0.01040665,0.0009737
 2,-0.09942132,0.20993274,-0.00000827,-0.00000103,-0.00000610,0.0000044
 0,-0.00001028,0.00000053,0.00000312,-0.00000241,0.00000250,0.00001163,
 -0.00000097,-0.00000048,0.00000397,0.00000344,-0.00000016,0.00000243,0
 .00000328,0.00000338,0.00000472,-0.00000370,-0.00000015,-0.00000051,-0
 .00000484,0.00000254,-0.00000816,0.00003050,-0.00000426,0.00003418,-0.
 00001719,-0.00002045,0.00003608,-0.00003680,0.00001550,-0.00002602,0.0
 0003088,0.00003530,-0.00000781,0.00000548,-0.00000745,-0.00000862,-0.0
 0000930,0.00000626,0.00008709,-0.00005102,-0.00008378,0.00000314,-0.00
 000134,0.00000078,-0.00001125,-0.00005073,0.00000754,-0.00000198,0.000
 00105,0.00000376,-0.00000092,0.00000004,-0.00000930,-0.00000074,0.0000
 0027,-0.00000063,0.00001797,-0.00000514,-0.00000668,-0.00000353,-0.000
 00213,0.00000031,-0.00000480,-0.00000043,0.00000502,0.00017381,0.00017
 591,-0.00000810,-0.00000545,0.00000895,-0.00006448,-0.00000630,-0.0000
 2255,0.00001505,-0.00038070,-0.00018306,-0.00032311,-0.00003642,-0.000
 10993,0.00007467,-0.00001830,0.00004915,0.00000064,-0.00101971,0.00041
 689,-0.00110041,0.00001493,-0.00269198,-0.00145525,-0.00012079,0.00006
 977,0.00002515,-0.00023511,0.00002102,0.00019927,-0.00004068,0.0001506
 4,0.00063994,0.00000647,0.00000605,-0.00000845,0.00000077,-0.00001013,
 0.00000239,-0.00000110,-0.00000426,0.00000244,0.00000579,-0.00000133,-
 0.00000171,0.00000903,-0.00000371,0.00000719,-0.00000037,0.00000015,-0
 .00000347,-0.00000581,0.00000540,-0.00000649,0.00001854,-0.00000138,0.
 00000987,0.00000058,0.00000010,-0.00000020,-0.00000109,0.00000085,-0.0
 0000221,-0.00000848,0.00000740,-0.00000970,0.00000434,-0.00000202,0.00
 000405,-0.00000352,-0.00000307,0.00000573,0.00000031,0.00000670,-0.000
 00780,-0.00000138,-0.00000021,0.00000231,-0.00000324,-0.00000432,0.000
 00782,0.00003125,0.00005315,-0.00002274,-0.00002628,-0.00004399,-0.000
 08242,-0.00003427,0.00006759,-0.00007628,0.00003711,0.00018664,-0.0002
 0357,-0.00018813,-0.00006480,0.00055260,0.00060993,0.00034868,-0.00008
 493,0.00256896,-0.00513857,0.00284132,-0.00051564,0.00007514,0.0001174
 2,0.00006047,0.00002343,-0.00009416,-0.00000574,-0.00000285,0.00000555
 ,-0.00000687,-0.00000176,0.00000395,0.00000015,0.00000147,-0.00000177,
 -0.00001521,-0.00001050,-0.00000218,0.00135010,0.02378676,-0.01590330,
 -0.00673816,0.01007563,-0.00198204,0.00440010,-0.02711468,0.01698344\\
 -0.00001685,0.00000844,-0.00003511,-0.00000330,-0.00000664,-0.00000301
 ,-0.00001226,0.00000872,0.00001397,0.00000531,-0.00000378,-0.00000398,
 0.00001554,-0.00001582,0.00001084,-0.00001701,-0.00000346,0.00001430,0
 .00000777,-0.00000019,0.00000296,-0.00000158,0.00000598,-0.00000117,-0
 .00001029,-0.00000227,0.00001840,0.00000510,-0.00000070,-0.00000752,-0
 .00000511,0.00000568,-0.00000731,0.00002209,0.00000311,-0.00003493,-0.
 00000767,-0.00000533,0.00000633,-0.00000699,-0.00000252,-0.00000216,0.
 00000006,0.00000890,0.00000408,0.00000697,-0.00000378,-0.00001130,-0.0
 0000471,0.00000873,-0.00001640,0.00002244,0.00000025,-0.00001020,0.000
 00699,-0.00000621,0.00001125,-0.00001086,0.00000619,-0.00001149,0.0000
 2392,0.00002101,0.00014547,0.00000897,-0.00000449,-0.00002057,-0.00001
 435,0.00000822,-0.00001607,0.00000079,-0.00001502,0.00000085,-0.000002
 41,0.00000015,0.00001240,0.00000999,0.00000957,-0.00000506,-0.00000174
 ,-0.00001597,0.00002114,-0.00000374,0.00000762,-0.00000983,-0.00000724
 ,0.00000120,-0.00000732,0.00003419,-0.00000645,0.00001574,-0.00000958,
 0.00000712,-0.00001404,-0.00000751,0.00000045,-0.00000412,0.00001602,-
 0.00000726,0.00001097,-0.00000516,0.00000180,-0.00000470,0.00000708,-0
 .00000517,-0.00000525,-0.00002124,0.00000881,0.00000313,0.00001089,-0.
 00000572,-0.00000233,0.00001418,-0.00000766,0.00000347,-0.00002348,0.0
 0000074,-0.00000019,-0.00001006,0.00001659,0.00001642,0.00000629,-0.00
 000071,-0.00000020,-0.00002263,0.00000100,-0.00004081,0.00000745,-0.00
 001474,-0.00000398,-0.00001064,-0.00000632,0.00001381,0.00001191,0.000
 02054,0.00002877,-0.00000249,0.00000507,-0.00000090,-0.00000862,-0.000
 00193,-0.00001395,0.00005237,-0.00002851,-0.00006329,-0.00003254,0.000
 01174,0.00001721,0.00000091,0.00000043,0.00000302,0.00000817,0.0000140
 6,0.00000098,-0.00000436,0.00000358,0.00001722,0.00000507,0.00000206,-
 0.00000976,-0.00004294,-0.00000630,0.00002470,0.00000552,0.00000443,-0
 .00001683,0.00000850,0.00002311,-0.00002198,0.00000680,-0.00001352,0.0
 0002709,0.00000084,0.00000045,-0.00000507,0.00000155,0.00000258,0.0000
 0234,-0.00000361,-0.00000804,0.00000581,0.00000532,-0.00000177,0.00000
 598,-0.00000092,-0.00000637,0.00000240,-0.00000805,-0.00001911,-0.0000
 4711,-0.00000019,-0.00000153,-0.00000277,-0.00000011,-0.00000104,-0.00
 000158,0.00000122,0.00000003,0.00000121\\\@
 The archive entry for this job was punched.


 FOR THE NATURE OF THE CHEMICAL BOND
 IS THE PROBLEM AT THE HEART OF ALL CHEMISTRY.

                     -- BRYCE CRAWFORD, JR., 1953
 Job cpu time:       7 days  8 hours 38 minutes 55.6 seconds.
 Elapsed time:       0 days  3 hours 51 minutes 12.0 seconds.
 File lengths (MBytes):  RWF=  14492 Int=      0 D2E=      0 Chk=    141 Scr=      2
 Normal termination of Gaussian 16 at Tue Feb 21 23:00:18 2023.
