 Entering Gaussian System, Link 0=g16
 Initial command:
 /home/chesagar/softwares/G16_AVX2//g16/l1.exe "/home/chesagar/scratch/Gau-587.inp" -scrdir="/home/chesagar/scratch/"
 Entering Link 1 = /home/chesagar/softwares/G16_AVX2//g16/l1.exe PID=       588.
  
 Copyright (c) 1988-2019, Gaussian, Inc.  All Rights Reserved.
  
 This is part of the Gaussian(R) 16 program.  It is based on
 the Gaussian(R) 09 system (copyright 2009, Gaussian, Inc.),
 the Gaussian(R) 03 system (copyright 2003, Gaussian, Inc.),
 the Gaussian(R) 98 system (copyright 1998, Gaussian, Inc.),
 the Gaussian(R) 94 system (copyright 1995, Gaussian, Inc.),
 the Gaussian 92(TM) system (copyright 1992, Gaussian, Inc.),
 the Gaussian 90(TM) system (copyright 1990, Gaussian, Inc.),
 the Gaussian 88(TM) system (copyright 1988, Gaussian, Inc.),
 the Gaussian 86(TM) system (copyright 1986, Carnegie Mellon
 University), and the Gaussian 82(TM) system (copyright 1983,
 Carnegie Mellon University). Gaussian is a federally registered
 trademark of Gaussian, Inc.
  
 This software contains proprietary and confidential information,
 including trade secrets, belonging to Gaussian, Inc.
  
 This software is provided under written license and may be
 used, copied, transmitted, or stored only in accord with that
 written license.
  
 The following legend is applicable only to US Government
 contracts under FAR:
  
                    RESTRICTED RIGHTS LEGEND
  
 Use, reproduction and disclosure by the US Government is
 subject to restrictions as set forth in subparagraphs (a)
 and (c) of the Commercial Computer Software - Restricted
 Rights clause in FAR 52.227-19.
  
 Gaussian, Inc.
 340 Quinnipiac St., Bldg. 40, Wallingford CT 06492
  
  
 ---------------------------------------------------------------
 Warning -- This program may not be used in any manner that
 competes with the business of Gaussian, Inc. or will provide
 assistance to any competitor of Gaussian, Inc.  The licensee
 of this program is prohibited from giving any competitor of
 Gaussian, Inc. access to this program.  By using this program,
 the user acknowledges that Gaussian, Inc. is engaged in the
 business of creating and licensing software in the field of
 computational chemistry and represents and warrants to the
 licensee that it is not a competitor of Gaussian, Inc. and that
 it will not use this program in any manner prohibited above.
 ---------------------------------------------------------------
  

 Cite this work as:
 Gaussian 16, Revision C.01,
 M. J. Frisch, G. W. Trucks, H. B. Schlegel, G. E. Scuseria, 
 M. A. Robb, J. R. Cheeseman, G. Scalmani, V. Barone, 
 G. A. Petersson, H. Nakatsuji, X. Li, M. Caricato, A. V. Marenich, 
 J. Bloino, B. G. Janesko, R. Gomperts, B. Mennucci, H. P. Hratchian, 
 J. V. Ortiz, A. F. Izmaylov, J. L. Sonnenberg, D. Williams-Young, 
 F. Ding, F. Lipparini, F. Egidi, J. Goings, B. Peng, A. Petrone, 
 T. Henderson, D. Ranasinghe, V. G. Zakrzewski, J. Gao, N. Rega, 
 G. Zheng, W. Liang, M. Hada, M. Ehara, K. Toyota, R. Fukuda, 
 J. Hasegawa, M. Ishida, T. Nakajima, Y. Honda, O. Kitao, H. Nakai, 
 T. Vreven, K. Throssell, J. A. Montgomery, Jr., J. E. Peralta, 
 F. Ogliaro, M. J. Bearpark, J. J. Heyd, E. N. Brothers, K. N. Kudin, 
 V. N. Staroverov, T. A. Keith, R. Kobayashi, J. Normand, 
 K. Raghavachari, A. P. Rendell, J. C. Burant, S. S. Iyengar, 
 J. Tomasi, M. Cossi, J. M. Millam, M. Klene, C. Adamo, R. Cammi, 
 J. W. Ochterski, R. L. Martin, K. Morokuma, O. Farkas, 
 J. B. Foresman, and D. J. Fox, Gaussian, Inc., Wallingford CT, 2019.
 
 ******************************************
 Gaussian 16:  ES64L-G16RevC.01  3-Jul-2019
                21-Feb-2023 
 ******************************************
 %nprocshared=46
 Will use up to   46 processors via shared memory.
 %chk=Mo19S44_H2S_i1_f.chk
 %mem=100GB
 ---------------------------------------------------------
 # opt freq b3lyp/gen nosymm pseudo=read scf=maxcycles=500
 ---------------------------------------------------------
 1/18=20,19=15,26=3,38=1/1,3;
 2/9=110,12=2,15=1,17=6,18=5,40=1/2;
 3/5=7,11=2,16=1,17=8,25=1,30=1,71=1,74=-5/1,2,3;
 4//1;
 5/5=2,7=500,38=5/2;
 6/7=2,8=2,9=2,10=2,28=1/1;
 7/30=1/1,2,3,16;
 1/18=20,19=15,26=3/3(2);
 2/9=110,15=1/2;
 99//99;
 2/9=110,15=1/2;
 3/5=7,6=1,11=2,16=1,17=8,25=1,30=1,71=1,74=-5,82=7/1,2,3;
 4/5=5,16=3,69=1/1;
 5/5=2,7=500,38=5/2;
 7/30=1/1,2,3,16;
 1/18=20,19=15,26=3/3(-5);
 2/9=110,15=1/2;
 6/7=2,8=2,9=2,10=2,19=2,28=1/1;
 99/9=1/99;
 -------------------
 Title Card Required
 -------------------
 Symbolic Z-matrix:
 Charge =  0 Multiplicity = 1
 42                    0.39917   1.28244   12.66278 
 16                    2.40444   2.20249   13.66082 
 16                   -0.63621   1.90327   14.88305 
 16                   -0.41934   0.9683    10.38393 
 16                    1.98281  -0.41814   11.95959 
 42                   -1.99677   2.70721   11.01051 
 16                   -2.78447   2.40418   8.73504 
 16                    0.01054   3.60156   12.05102 
 42                    1.02788   2.88825   9.93121 
 16                    0.21221   2.58686   7.63259 
 16                    2.60663   1.12804   9.31066 
 42                    3.41476   1.49317   11.56003 
 42                   -1.36433   4.31271   8.30005 
 16                    5.57549   2.43834   12.52188 
 16                    3.06487   3.80218   10.93011 
 16                   -2.30173   5.02943   10.42298 
 16                    1.1993    6.84363   6.45763 
 42                   -4.42378   4.22268   9.43915 
 16                   -5.84076   2.07707   9.63811 
 16                   -5.45326   4.77396   11.37068 
 42                    2.56774   0.00761   14.16871 
 16                    4.83668   0.20393   15.24015 
 16                    1.75717   0.42067   16.39626 
 42                    1.68514   4.46884   7.1881 
 16                    0.94533   4.29042   4.7729 
 16                    0.68396   5.22116   9.27674 
 42                    4.04308   3.02246   8.83334 
 16                    3.19007   2.67142   6.58835 
 16                    3.72685   5.33805   8.17816 
 42                    4.63328   4.51236   6.08157 
 16                    6.88057   5.36673   6.99308 
 16                    4.41873   7.03434   5.57478 
 42                    2.60973   6.25591   4.57382 
 16                    3.91547   4.32355   3.87046 
 16                   -1.45035   6.88958   3.82268 
 42                   -0.80022   5.75867   5.48422 
 16                   -2.31289   4.08486   5.96896 
 16                   -1.70527   6.69609   7.54987 
 42                   -3.68543   5.96694   6.53144 
 16                   -5.6692    4.64573   7.31311 
 16                   -4.49489   7.14311   4.97749 
 42                   -5.22484   2.38542   11.73592 
 16                   -3.25087   3.37637   13.10161 
 16                   -3.45863   0.72199   11.58778 
 42                   -2.58502   1.20891   13.8546 
 16                   -1.14796  -0.6402    13.16548 
 16                   -3.98955   0.53801   15.283 
 42                    0.03586  -0.70645   15.34136 
 16                    1.32784  -2.29578   14.49703 
 16                   -1.24344  -1.55492   16.79885 
 42                    5.80037   0.20871   12.94726 
 16                    5.15096  -0.26907   11.14808 
 16                    8.46381   1.06913   10.7592 
 42                    6.47949   1.66287   10.35263 
 16                    5.62602   1.09378   8.19282 
 16                    6.20886   3.97249   9.80777 
 42                    7.03934   2.98274   7.78687 
 16                    9.11458   2.61991   7.69219 
 16                    2.23886   7.49629   2.90275 
 16                    7.79154  -0.39846   13.36787 
 16                   -6.80623   1.70706   12.96281 
 16                   -5.22488   6.38173   8.43695 
 16                    4.53041  -1.56743   14.13043 
 16                    6.31063   2.74521   5.41206 
 1                     7.54772   5.22418   5.82444 
 1                     5.58927   1.60995   5.30691 
 

 GradGradGradGradGradGradGradGradGradGradGradGradGradGradGradGradGradGrad
 Berny optimization.
 Initialization pass.
                           ----------------------------
                           !    Initial Parameters    !
                           ! (Angstroms and Degrees)  !
 --------------------------                            --------------------------
 ! Name  Definition              Value          Derivative Info.                !
 --------------------------------------------------------------------------------
 ! R1    R(1,2)                  2.4215         estimate D2E/DX2                !
 ! R2    R(1,3)                  2.5273         estimate D2E/DX2                !
 ! R3    R(1,4)                  2.4417         estimate D2E/DX2                !
 ! R4    R(1,5)                  2.4278         estimate D2E/DX2                !
 ! R5    R(1,8)                  2.4297         estimate D2E/DX2                !
 ! R6    R(1,21)                 2.9318         estimate D2E/DX2                !
 ! R7    R(1,46)                 2.5185         estimate D2E/DX2                !
 ! R8    R(2,12)                 2.4366         estimate D2E/DX2                !
 ! R9    R(2,21)                 2.2588         estimate D2E/DX2                !
 ! R10   R(3,45)                 2.3103         estimate D2E/DX2                !
 ! R11   R(3,48)                 2.7336         estimate D2E/DX2                !
 ! R12   R(4,6)                  2.43           estimate D2E/DX2                !
 ! R13   R(4,9)                  2.4466         estimate D2E/DX2                !
 ! R14   R(5,12)                 2.4214         estimate D2E/DX2                !
 ! R15   R(5,21)                 2.3246         estimate D2E/DX2                !
 ! R16   R(6,7)                  2.4269         estimate D2E/DX2                !
 ! R17   R(6,8)                  2.4314         estimate D2E/DX2                !
 ! R18   R(6,16)                 2.4147         estimate D2E/DX2                !
 ! R19   R(6,43)                 2.5285         estimate D2E/DX2                !
 ! R20   R(6,44)                 2.5321         estimate D2E/DX2                !
 ! R21   R(7,13)                 2.4184         estimate D2E/DX2                !
 ! R22   R(7,18)                 2.5476         estimate D2E/DX2                !
 ! R23   R(8,9)                  2.4571         estimate D2E/DX2                !
 ! R24   R(9,10)                 2.4576         estimate D2E/DX2                !
 ! R25   R(9,11)                 2.4446         estimate D2E/DX2                !
 ! R26   R(9,15)                 2.4459         estimate D2E/DX2                !
 ! R27   R(9,26)                 2.4473         estimate D2E/DX2                !
 ! R28   R(10,13)                2.431          estimate D2E/DX2                !
 ! R29   R(10,24)                2.4308         estimate D2E/DX2                !
 ! R30   R(11,12)                2.4179         estimate D2E/DX2                !
 ! R31   R(11,27)                2.4249         estimate D2E/DX2                !
 ! R32   R(12,14)                2.547          estimate D2E/DX2                !
 ! R33   R(12,15)                2.4188         estimate D2E/DX2                !
 ! R34   R(12,21)                3.1192         estimate D2E/DX2                !
 ! R35   R(12,51)                3.0439         estimate D2E/DX2                !
 ! R36   R(12,52)                2.5079         estimate D2E/DX2                !
 ! R37   R(13,16)                2.4288         estimate D2E/DX2                !
 ! R38   R(13,26)                2.4443         estimate D2E/DX2                !
 ! R39   R(13,37)                2.527          estimate D2E/DX2                !
 ! R40   R(13,38)                2.5218         estimate D2E/DX2                !
 ! R41   R(14,51)                2.281          estimate D2E/DX2                !
 ! R42   R(14,54)                2.4747         estimate D2E/DX2                !
 ! R43   R(15,27)                2.4416         estimate D2E/DX2                !
 ! R44   R(16,18)                2.4742         estimate D2E/DX2                !
 ! R45   R(17,24)                2.5317         estimate D2E/DX2                !
 ! R46   R(17,33)                2.4256         estimate D2E/DX2                !
 ! R47   R(17,36)                2.4744         estimate D2E/DX2                !
 ! R48   R(18,19)                2.579          estimate D2E/DX2                !
 ! R49   R(18,20)                2.2571         estimate D2E/DX2                !
 ! R50   R(18,40)                2.5            estimate D2E/DX2                !
 ! R51   R(18,42)                3.0483         estimate D2E/DX2                !
 ! R52   R(18,62)                2.5115         estimate D2E/DX2                !
 ! R53   R(19,42)                2.208          estimate D2E/DX2                !
 ! R54   R(20,42)                2.4271         estimate D2E/DX2                !
 ! R55   R(21,22)                2.5169         estimate D2E/DX2                !
 ! R56   R(21,23)                2.4062         estimate D2E/DX2                !
 ! R57   R(21,48)                2.8802         estimate D2E/DX2                !
 ! R58   R(21,49)                2.6364         estimate D2E/DX2                !
 ! R59   R(21,63)                2.5168         estimate D2E/DX2                !
 ! R60   R(22,51)                2.4872         estimate D2E/DX2                !
 ! R61   R(22,63)                2.1126         estimate D2E/DX2                !
 ! R62   R(23,48)                2.3122         estimate D2E/DX2                !
 ! R63   R(24,25)                2.5323         estimate D2E/DX2                !
 ! R64   R(24,26)                2.4353         estimate D2E/DX2                !
 ! R65   R(24,28)                2.4198         estimate D2E/DX2                !
 ! R66   R(24,29)                2.4299         estimate D2E/DX2                !
 ! R67   R(25,33)                2.5832         estimate D2E/DX2                !
 ! R68   R(25,36)                2.3893         estimate D2E/DX2                !
 ! R69   R(27,28)                2.4271         estimate D2E/DX2                !
 ! R70   R(27,29)                2.4272         estimate D2E/DX2                !
 ! R71   R(27,55)                2.576          estimate D2E/DX2                !
 ! R72   R(27,56)                2.5579         estimate D2E/DX2                !
 ! R73   R(28,30)                2.3935         estimate D2E/DX2                !
 ! R74   R(29,30)                2.4288         estimate D2E/DX2                !
 ! R75   R(30,31)                2.5712         estimate D2E/DX2                !
 ! R76   R(30,32)                2.5813         estimate D2E/DX2                !
 ! R77   R(30,33)                3.0673         estimate D2E/DX2                !
 ! R78   R(30,34)                2.3324         estimate D2E/DX2                !
 ! R79   R(30,64)                2.5268         estimate D2E/DX2                !
 ! R80   R(31,57)                2.5177         estimate D2E/DX2                !
 ! R81   R(31,65)                1.3532         estimate D2E/DX2                !
 ! R82   R(32,33)                2.2092         estimate D2E/DX2                !
 ! R83   R(33,34)                2.4359         estimate D2E/DX2                !
 ! R84   R(33,59)                2.1139         estimate D2E/DX2                !
 ! R85   R(35,36)                2.1124         estimate D2E/DX2                !
 ! R86   R(36,37)                2.3075         estimate D2E/DX2                !
 ! R87   R(36,38)                2.4423         estimate D2E/DX2                !
 ! R88   R(36,39)                3.0764         estimate D2E/DX2                !
 ! R89   R(37,39)                2.3963         estimate D2E/DX2                !
 ! R90   R(38,39)                2.3431         estimate D2E/DX2                !
 ! R91   R(39,40)                2.5084         estimate D2E/DX2                !
 ! R92   R(39,41)                2.1103         estimate D2E/DX2                !
 ! R93   R(39,62)                2.4845         estimate D2E/DX2                !
 ! R94   R(40,62)                2.1152         estimate D2E/DX2                !
 ! R95   R(42,43)                2.5968         estimate D2E/DX2                !
 ! R96   R(42,44)                2.4307         estimate D2E/DX2                !
 ! R97   R(42,61)                2.1133         estimate D2E/DX2                !
 ! R98   R(43,45)                2.3892         estimate D2E/DX2                !
 ! R99   R(44,45)                2.4777         estimate D2E/DX2                !
 ! R100  R(45,46)                2.4412         estimate D2E/DX2                !
 ! R101  R(45,47)                2.1126         estimate D2E/DX2                !
 ! R102  R(46,48)                2.478          estimate D2E/DX2                !
 ! R103  R(48,49)                2.2154         estimate D2E/DX2                !
 ! R104  R(48,50)                2.1168         estimate D2E/DX2                !
 ! R105  R(51,52)                1.9716         estimate D2E/DX2                !
 ! R106  R(51,54)                3.0509         estimate D2E/DX2                !
 ! R107  R(51,60)                2.1237         estimate D2E/DX2                !
 ! R108  R(51,63)                2.4834         estimate D2E/DX2                !
 ! R109  R(52,54)                2.4759         estimate D2E/DX2                !
 ! R110  R(53,54)                2.1108         estimate D2E/DX2                !
 ! R111  R(54,55)                2.391          estimate D2E/DX2                !
 ! R112  R(54,56)                2.3884         estimate D2E/DX2                !
 ! R113  R(54,57)                2.9392         estimate D2E/DX2                !
 ! R114  R(55,57)                2.3938         estimate D2E/DX2                !
 ! R115  R(56,57)                2.3986         estimate D2E/DX2                !
 ! R116  R(57,58)                2.1088         estimate D2E/DX2                !
 ! R117  R(57,64)                2.4954         estimate D2E/DX2                !
 ! R118  R(64,66)                1.3492         estimate D2E/DX2                !
 ! A1    A(2,1,3)               83.3292         estimate D2E/DX2                !
 ! A2    A(2,1,4)              135.3295         estimate D2E/DX2                !
 ! A3    A(2,1,5)               81.1036         estimate D2E/DX2                !
 ! A4    A(2,1,8)               82.737          estimate D2E/DX2                !
 ! A5    A(2,1,46)             135.7662         estimate D2E/DX2                !
 ! A6    A(3,1,4)              135.5783         estimate D2E/DX2                !
 ! A7    A(3,1,5)              133.9282         estimate D2E/DX2                !
 ! A8    A(3,1,8)               85.4802         estimate D2E/DX2                !
 ! A9    A(3,1,21)              87.6268         estimate D2E/DX2                !
 ! A10   A(3,1,46)              76.1431         estimate D2E/DX2                !
 ! A11   A(4,1,5)               81.8492         estimate D2E/DX2                !
 ! A12   A(4,1,8)               80.456          estimate D2E/DX2                !
 ! A13   A(4,1,21)             132.1754         estimate D2E/DX2                !
 ! A14   A(4,1,46)              83.2314         estimate D2E/DX2                !
 ! A15   A(5,1,8)              134.4248         estimate D2E/DX2                !
 ! A16   A(5,1,46)              85.629          estimate D2E/DX2                !
 ! A17   A(8,1,21)             131.503          estimate D2E/DX2                !
 ! A18   A(8,1,46)             132.8944         estimate D2E/DX2                !
 ! A19   A(21,1,46)             91.1408         estimate D2E/DX2                !
 ! A20   A(1,2,12)              82.9584         estimate D2E/DX2                !
 ! A21   A(1,3,45)              83.1466         estimate D2E/DX2                !
 ! A22   A(1,3,48)              79.1665         estimate D2E/DX2                !
 ! A23   A(45,3,48)             89.7187         estimate D2E/DX2                !
 ! A24   A(1,4,6)               83.3899         estimate D2E/DX2                !
 ! A25   A(1,4,9)               82.7291         estimate D2E/DX2                !
 ! A26   A(6,4,9)               82.538          estimate D2E/DX2                !
 ! A27   A(1,5,12)              83.145          estimate D2E/DX2                !
 ! A28   A(4,6,7)               83.0835         estimate D2E/DX2                !
 ! A29   A(4,6,8)               80.6563         estimate D2E/DX2                !
 ! A30   A(4,6,16)             135.0272         estimate D2E/DX2                !
 ! A31   A(4,6,43)             136.4366         estimate D2E/DX2                !
 ! A32   A(4,6,44)              82.6753         estimate D2E/DX2                !
 ! A33   A(7,6,8)              135.6523         estimate D2E/DX2                !
 ! A34   A(7,6,16)              81.429          estimate D2E/DX2                !
 ! A35   A(7,6,43)             130.3508         estimate D2E/DX2                !
 ! A36   A(7,6,44)              85.8985         estimate D2E/DX2                !
 ! A37   A(8,6,16)              81.6423         estimate D2E/DX2                !
 ! A38   A(8,6,43)              87.605          estimate D2E/DX2                !
 ! A39   A(8,6,44)             131.8712         estimate D2E/DX2                !
 ! A40   A(16,6,43)             83.343          estimate D2E/DX2                !
 ! A41   A(16,6,44)            137.4387         estimate D2E/DX2                !
 ! A42   A(43,6,44)             74.4899         estimate D2E/DX2                !
 ! A43   A(6,7,13)              83.0798         estimate D2E/DX2                !
 ! A44   A(6,7,18)              81.9861         estimate D2E/DX2                !
 ! A45   A(13,7,18)             82.1979         estimate D2E/DX2                !
 ! A46   A(1,8,6)               83.6104         estimate D2E/DX2                !
 ! A47   A(1,8,9)               82.7559         estimate D2E/DX2                !
 ! A48   A(6,8,9)               82.2898         estimate D2E/DX2                !
 ! A49   A(4,9,8)               79.8199         estimate D2E/DX2                !
 ! A50   A(4,9,10)              83.137          estimate D2E/DX2                !
 ! A51   A(4,9,11)              82.1797         estimate D2E/DX2                !
 ! A52   A(4,9,15)             135.2595         estimate D2E/DX2                !
 ! A53   A(4,9,26)             135.5979         estimate D2E/DX2                !
 ! A54   A(8,9,10)             134.8376         estimate D2E/DX2                !
 ! A55   A(8,9,11)             134.0615         estimate D2E/DX2                !
 ! A56   A(8,9,15)              83.339          estimate D2E/DX2                !
 ! A57   A(8,9,26)              84.0184         estimate D2E/DX2                !
 ! A58   A(10,9,11)             83.605          estimate D2E/DX2                !
 ! A59   A(10,9,15)            134.7663         estimate D2E/DX2                !
 ! A60   A(10,9,26)             79.6382         estimate D2E/DX2                !
 ! A61   A(11,9,15)             80.4954         estimate D2E/DX2                !
 ! A62   A(11,9,26)            135.1764         estimate D2E/DX2                !
 ! A63   A(15,9,26)             82.5335         estimate D2E/DX2                !
 ! A64   A(9,10,13)             82.61           estimate D2E/DX2                !
 ! A65   A(9,10,24)             82.8177         estimate D2E/DX2                !
 ! A66   A(13,10,24)            83.8877         estimate D2E/DX2                !
 ! A67   A(9,11,12)             82.586          estimate D2E/DX2                !
 ! A68   A(9,11,27)             82.5308         estimate D2E/DX2                !
 ! A69   A(12,11,27)            82.366          estimate D2E/DX2                !
 ! A70   A(2,12,5)              80.9271         estimate D2E/DX2                !
 ! A71   A(2,12,11)            135.0286         estimate D2E/DX2                !
 ! A72   A(2,12,14)             85.3044         estimate D2E/DX2                !
 ! A73   A(2,12,15)             83.492          estimate D2E/DX2                !
 ! A74   A(2,12,51)             93.146          estimate D2E/DX2                !
 ! A75   A(2,12,52)            129.2882         estimate D2E/DX2                !
 ! A76   A(5,12,11)             80.5989         estimate D2E/DX2                !
 ! A77   A(5,12,14)            137.0784         estimate D2E/DX2                !
 ! A78   A(5,12,15)            135.3101         estimate D2E/DX2                !
 ! A79   A(5,12,51)             93.164          estimate D2E/DX2                !
 ! A80   A(5,12,52)             83.2152         estimate D2E/DX2                !
 ! A81   A(11,12,14)           133.7019         estimate D2E/DX2                !
 ! A82   A(11,12,15)            81.5778         estimate D2E/DX2                !
 ! A83   A(11,12,21)           127.9782         estimate D2E/DX2                !
 ! A84   A(11,12,51)           128.4775         estimate D2E/DX2                !
 ! A85   A(11,12,52)            88.4221         estimate D2E/DX2                !
 ! A86   A(14,12,15)            82.3466         estimate D2E/DX2                !
 ! A87   A(14,12,21)            95.2368         estimate D2E/DX2                !
 ! A88   A(14,12,52)            74.6622         estimate D2E/DX2                !
 ! A89   A(15,12,21)           129.283          estimate D2E/DX2                !
 ! A90   A(15,12,51)           129.4107         estimate D2E/DX2                !
 ! A91   A(15,12,52)           136.7306         estimate D2E/DX2                !
 ! A92   A(21,12,51)            68.3278         estimate D2E/DX2                !
 ! A93   A(21,12,52)            89.4676         estimate D2E/DX2                !
 ! A94   A(7,13,10)             82.527          estimate D2E/DX2                !
 ! A95   A(7,13,16)             81.3165         estimate D2E/DX2                !
 ! A96   A(7,13,26)            135.5219         estimate D2E/DX2                !
 ! A97   A(7,13,37)             82.7811         estimate D2E/DX2                !
 ! A98   A(7,13,38)            136.0528         estimate D2E/DX2                !
 ! A99   A(10,13,16)           134.4091         estimate D2E/DX2                !
 ! A100  A(10,13,26)            80.2188         estimate D2E/DX2                !
 ! A101  A(10,13,37)            85.7645         estimate D2E/DX2                !
 ! A102  A(10,13,38)           132.6081         estimate D2E/DX2                !
 ! A103  A(16,13,26)            82.212          estimate D2E/DX2                !
 ! A104  A(16,13,37)           133.4744         estimate D2E/DX2                !
 ! A105  A(16,13,38)            85.9252         estimate D2E/DX2                !
 ! A106  A(26,13,37)           135.7798         estimate D2E/DX2                !
 ! A107  A(26,13,38)            83.1598         estimate D2E/DX2                !
 ! A108  A(37,13,38)            76.1167         estimate D2E/DX2                !
 ! A109  A(12,14,54)            82.1016         estimate D2E/DX2                !
 ! A110  A(9,15,12)             82.5381         estimate D2E/DX2                !
 ! A111  A(9,15,27)             82.1612         estimate D2E/DX2                !
 ! A112  A(12,15,27)            82.0004         estimate D2E/DX2                !
 ! A113  A(6,16,13)             83.1161         estimate D2E/DX2                !
 ! A114  A(6,16,18)             83.7707         estimate D2E/DX2                !
 ! A115  A(13,16,18)            83.5258         estimate D2E/DX2                !
 ! A116  A(24,17,33)            83.4087         estimate D2E/DX2                !
 ! A117  A(24,17,36)            81.7947         estimate D2E/DX2                !
 ! A118  A(33,17,36)            93.3318         estimate D2E/DX2                !
 ! A119  A(7,18,16)             77.9221         estimate D2E/DX2                !
 ! A120  A(7,18,19)             77.3498         estimate D2E/DX2                !
 ! A121  A(7,18,20)            134.7775         estimate D2E/DX2                !
 ! A122  A(7,18,40)            101.9064         estimate D2E/DX2                !
 ! A123  A(7,18,42)             86.9683         estimate D2E/DX2                !
 ! A124  A(7,18,62)            135.1221         estimate D2E/DX2                !
 ! A125  A(16,18,19)           135.3835         estimate D2E/DX2                !
 ! A126  A(16,18,20)            88.3539         estimate D2E/DX2                !
 ! A127  A(16,18,40)           135.2533         estimate D2E/DX2                !
 ! A128  A(16,18,42)            97.0252         estimate D2E/DX2                !
 ! A129  A(16,18,62)            98.7392         estimate D2E/DX2                !
 ! A130  A(19,18,20)            83.4873         estimate D2E/DX2                !
 ! A131  A(19,18,40)            86.14           estimate D2E/DX2                !
 ! A132  A(19,18,62)           124.8019         estimate D2E/DX2                !
 ! A133  A(20,18,40)           117.3352         estimate D2E/DX2                !
 ! A134  A(20,18,62)            89.1997         estimate D2E/DX2                !
 ! A135  A(40,18,42)           127.7213         estimate D2E/DX2                !
 ! A136  A(42,18,62)           137.3041         estimate D2E/DX2                !
 ! A137  A(1,21,12)             64.1633         estimate D2E/DX2                !
 ! A138  A(1,21,22)            148.38           estimate D2E/DX2                !
 ! A139  A(1,21,23)             98.7256         estimate D2E/DX2                !
 ! A140  A(1,21,48)             70.5317         estimate D2E/DX2                !
 ! A141  A(1,21,49)             95.509          estimate D2E/DX2                !
 ! A142  A(1,21,63)            147.2576         estimate D2E/DX2                !
 ! A143  A(2,21,5)              86.9101         estimate D2E/DX2                !
 ! A144  A(2,21,22)             94.8817         estimate D2E/DX2                !
 ! A145  A(2,21,23)             90.9737         estimate D2E/DX2                !
 ! A146  A(2,21,48)            105.5989         estimate D2E/DX2                !
 ! A147  A(2,21,49)            147.4541         estimate D2E/DX2                !
 ! A148  A(2,21,63)            131.381          estimate D2E/DX2                !
 ! A149  A(5,21,22)            130.2178         estimate D2E/DX2                !
 ! A150  A(5,21,23)            145.7371         estimate D2E/DX2                !
 ! A151  A(5,21,48)             96.9102         estimate D2E/DX2                !
 ! A152  A(5,21,49)             80.7925         estimate D2E/DX2                !
 ! A153  A(5,21,63)             93.8507         estimate D2E/DX2                !
 ! A154  A(12,21,22)            94.2483         estimate D2E/DX2                !
 ! A155  A(12,21,23)           141.6248         estimate D2E/DX2                !
 ! A156  A(12,21,48)           134.2101         estimate D2E/DX2                !
 ! A157  A(12,21,49)           130.3876         estimate D2E/DX2                !
 ! A158  A(12,21,63)            94.2188         estimate D2E/DX2                !
 ! A159  A(22,21,23)            84.0416         estimate D2E/DX2                !
 ! A160  A(22,21,48)           129.6795         estimate D2E/DX2                !
 ! A161  A(22,21,49)           116.0465         estimate D2E/DX2                !
 ! A162  A(23,21,49)            82.8922         estimate D2E/DX2                !
 ! A163  A(23,21,63)           112.595          estimate D2E/DX2                !
 ! A164  A(48,21,63)           122.4501         estimate D2E/DX2                !
 ! A165  A(49,21,63)            79.74           estimate D2E/DX2                !
 ! A166  A(21,22,51)            87.5352         estimate D2E/DX2                !
 ! A167  A(10,24,17)           131.5077         estimate D2E/DX2                !
 ! A168  A(10,24,25)            86.7227         estimate D2E/DX2                !
 ! A169  A(10,24,26)            80.4006         estimate D2E/DX2                !
 ! A170  A(10,24,28)            81.2041         estimate D2E/DX2                !
 ! A171  A(10,24,29)           135.3638         estimate D2E/DX2                !
 ! A172  A(17,24,25)            74.6228         estimate D2E/DX2                !
 ! A173  A(17,24,26)            83.0378         estimate D2E/DX2                !
 ! A174  A(17,24,28)           138.1266         estimate D2E/DX2                !
 ! A175  A(17,24,29)            86.7472         estimate D2E/DX2                !
 ! A176  A(25,24,26)           136.0264         estimate D2E/DX2                !
 ! A177  A(25,24,28)            83.8557         estimate D2E/DX2                !
 ! A178  A(25,24,29)           131.2466         estimate D2E/DX2                !
 ! A179  A(26,24,28)           134.2447         estimate D2E/DX2                !
 ! A180  A(26,24,29)            83.4237         estimate D2E/DX2                !
 ! A181  A(28,24,29)            81.0324         estimate D2E/DX2                !
 ! A182  A(24,25,33)            80.3087         estimate D2E/DX2                !
 ! A183  A(24,25,36)            83.4653         estimate D2E/DX2                !
 ! A184  A(33,25,36)            91.4955         estimate D2E/DX2                !
 ! A185  A(9,26,13)             82.5494         estimate D2E/DX2                !
 ! A186  A(9,26,24)             82.9402         estimate D2E/DX2                !
 ! A187  A(13,26,24)            83.5111         estimate D2E/DX2                !
 ! A188  A(11,27,15)            80.9737         estimate D2E/DX2                !
 ! A189  A(11,27,28)            82.0035         estimate D2E/DX2                !
 ! A190  A(11,27,29)           136.16           estimate D2E/DX2                !
 ! A191  A(11,27,55)            80.098          estimate D2E/DX2                !
 ! A192  A(11,27,56)           135.7872         estimate D2E/DX2                !
 ! A193  A(15,27,28)           134.4045         estimate D2E/DX2                !
 ! A194  A(15,27,29)            82.816          estimate D2E/DX2                !
 ! A195  A(15,27,55)           134.3337         estimate D2E/DX2                !
 ! A196  A(15,27,56)            83.8845         estimate D2E/DX2                !
 ! A197  A(28,27,29)            80.9389         estimate D2E/DX2                !
 ! A198  A(28,27,55)            82.9741         estimate D2E/DX2                !
 ! A199  A(28,27,56)           134.7219         estimate D2E/DX2                !
 ! A200  A(29,27,55)           136.6546         estimate D2E/DX2                !
 ! A201  A(29,27,56)            81.8833         estimate D2E/DX2                !
 ! A202  A(55,27,56)            81.5184         estimate D2E/DX2                !
 ! A203  A(24,28,27)            83.2168         estimate D2E/DX2                !
 ! A204  A(24,28,30)            81.7298         estimate D2E/DX2                !
 ! A205  A(27,28,30)            82.6856         estimate D2E/DX2                !
 ! A206  A(24,29,27)            83.0034         estimate D2E/DX2                !
 ! A207  A(24,29,30)            80.8079         estimate D2E/DX2                !
 ! A208  A(27,29,30)            81.9559         estimate D2E/DX2                !
 ! A209  A(28,30,29)            81.5859         estimate D2E/DX2                !
 ! A210  A(28,30,31)           135.034          estimate D2E/DX2                !
 ! A211  A(28,30,32)           137.9806         estimate D2E/DX2                !
 ! A212  A(28,30,33)            98.2502         estimate D2E/DX2                !
 ! A213  A(28,30,34)            87.2997         estimate D2E/DX2                !
 ! A214  A(28,30,64)            85.3225         estimate D2E/DX2                !
 ! A215  A(29,30,31)            84.6758         estimate D2E/DX2                !
 ! A216  A(29,30,32)            78.8322         estimate D2E/DX2                !
 ! A217  A(29,30,33)            89.1331         estimate D2E/DX2                !
 ! A218  A(29,30,34)           136.971          estimate D2E/DX2                !
 ! A219  A(29,30,64)           135.5795         estimate D2E/DX2                !
 ! A220  A(31,30,32)            79.4906         estimate D2E/DX2                !
 ! A221  A(31,30,33)           124.194          estimate D2E/DX2                !
 ! A222  A(31,30,34)           129.1953         estimate D2E/DX2                !
 ! A223  A(31,30,64)            75.2927         estimate D2E/DX2                !
 ! A224  A(32,30,34)            82.3795         estimate D2E/DX2                !
 ! A225  A(32,30,64)           133.3496         estimate D2E/DX2                !
 ! A226  A(33,30,64)           134.8499         estimate D2E/DX2                !
 ! A227  A(34,30,64)            84.0589         estimate D2E/DX2                !
 ! A228  A(30,31,57)            81.5035         estimate D2E/DX2                !
 ! A229  A(30,31,65)            95.1493         estimate D2E/DX2                !
 ! A230  A(57,31,65)            98.1315         estimate D2E/DX2                !
 ! A231  A(17,33,25)            75.5136         estimate D2E/DX2                !
 ! A232  A(17,33,30)            98.0236         estimate D2E/DX2                !
 ! A233  A(17,33,32)            92.2283         estimate D2E/DX2                !
 ! A234  A(17,33,34)           136.7321         estimate D2E/DX2                !
 ! A235  A(17,33,59)           111.7007         estimate D2E/DX2                !
 ! A236  A(25,33,30)            87.4025         estimate D2E/DX2                !
 ! A237  A(25,33,32)           139.534          estimate D2E/DX2                !
 ! A238  A(25,33,34)            76.3523         estimate D2E/DX2                !
 ! A239  A(25,33,59)           113.2248         estimate D2E/DX2                !
 ! A240  A(30,33,59)           146.9168         estimate D2E/DX2                !
 ! A241  A(32,33,34)            88.3616         estimate D2E/DX2                !
 ! A242  A(32,33,59)           107.1627         estimate D2E/DX2                !
 ! A243  A(34,33,59)           109.3453         estimate D2E/DX2                !
 ! A244  A(17,36,25)            78.2407         estimate D2E/DX2                !
 ! A245  A(17,36,35)           108.8676         estimate D2E/DX2                !
 ! A246  A(17,36,37)           139.9186         estimate D2E/DX2                !
 ! A247  A(17,36,38)            78.3714         estimate D2E/DX2                !
 ! A248  A(17,36,39)           126.4595         estimate D2E/DX2                !
 ! A249  A(25,36,35)           108.6426         estimate D2E/DX2                !
 ! A250  A(25,36,37)            95.4921         estimate D2E/DX2                !
 ! A251  A(25,36,38)           139.3232         estimate D2E/DX2                !
 ! A252  A(25,36,39)           145.9047         estimate D2E/DX2                !
 ! A253  A(35,36,37)           110.5981         estimate D2E/DX2                !
 ! A254  A(35,36,38)           110.226          estimate D2E/DX2                !
 ! A255  A(35,36,39)            86.7247         estimate D2E/DX2                !
 ! A256  A(37,36,38)            81.8259         estimate D2E/DX2                !
 ! A257  A(13,37,36)            83.2413         estimate D2E/DX2                !
 ! A258  A(13,37,39)            85.8512         estimate D2E/DX2                !
 ! A259  A(13,38,36)            80.7202         estimate D2E/DX2                !
 ! A260  A(13,38,39)            87.1022         estimate D2E/DX2                !
 ! A261  A(36,39,40)           144.3035         estimate D2E/DX2                !
 ! A262  A(36,39,41)            98.4419         estimate D2E/DX2                !
 ! A263  A(36,39,62)           148.591          estimate D2E/DX2                !
 ! A264  A(37,39,38)            82.0901         estimate D2E/DX2                !
 ! A265  A(37,39,40)            96.4559         estimate D2E/DX2                !
 ! A266  A(37,39,41)           118.986          estimate D2E/DX2                !
 ! A267  A(37,39,62)           131.7617         estimate D2E/DX2                !
 ! A268  A(38,39,40)           134.1731         estimate D2E/DX2                !
 ! A269  A(38,39,41)           118.0858         estimate D2E/DX2                !
 ! A270  A(38,39,62)            97.9511         estimate D2E/DX2                !
 ! A271  A(40,39,41)           102.6904         estimate D2E/DX2                !
 ! A272  A(41,39,62)           103.5348         estimate D2E/DX2                !
 ! A273  A(18,40,39)            87.7169         estimate D2E/DX2                !
 ! A274  A(18,42,43)            88.0801         estimate D2E/DX2                !
 ! A275  A(18,42,44)           100.1131         estimate D2E/DX2                !
 ! A276  A(18,42,61)           145.8441         estimate D2E/DX2                !
 ! A277  A(19,42,20)            88.178          estimate D2E/DX2                !
 ! A278  A(19,42,43)           139.9062         estimate D2E/DX2                !
 ! A279  A(19,42,44)            92.8212         estimate D2E/DX2                !
 ! A280  A(19,42,61)           107.3381         estimate D2E/DX2                !
 ! A281  A(20,42,43)            77.0056         estimate D2E/DX2                !
 ! A282  A(20,42,44)           137.1118         estimate D2E/DX2                !
 ! A283  A(20,42,61)           109.4408         estimate D2E/DX2                !
 ! A284  A(43,42,44)            74.981          estimate D2E/DX2                !
 ! A285  A(43,42,61)           112.7047         estimate D2E/DX2                !
 ! A286  A(44,42,61)           111.0654         estimate D2E/DX2                !
 ! A287  A(6,43,42)             80.857          estimate D2E/DX2                !
 ! A288  A(6,43,45)             83.2426         estimate D2E/DX2                !
 ! A289  A(42,43,45)            91.8002         estimate D2E/DX2                !
 ! A290  A(6,44,42)             84.0799         estimate D2E/DX2                !
 ! A291  A(6,44,45)             81.4273         estimate D2E/DX2                !
 ! A292  A(42,44,45)            93.7817         estimate D2E/DX2                !
 ! A293  A(3,45,43)             95.8963         estimate D2E/DX2                !
 ! A294  A(3,45,44)            139.7962         estimate D2E/DX2                !
 ! A295  A(3,45,46)             81.7645         estimate D2E/DX2                !
 ! A296  A(3,45,47)            110.8096         estimate D2E/DX2                !
 ! A297  A(43,45,44)            77.9754         estimate D2E/DX2                !
 ! A298  A(43,45,46)           139.6644         estimate D2E/DX2                !
 ! A299  A(43,45,47)           108.4156         estimate D2E/DX2                !
 ! A300  A(44,45,46)            78.4882         estimate D2E/DX2                !
 ! A301  A(44,45,47)           108.7696         estimate D2E/DX2                !
 ! A302  A(46,45,47)           109.9797         estimate D2E/DX2                !
 ! A303  A(1,46,45)             80.7767         estimate D2E/DX2                !
 ! A304  A(1,46,48)             84.3876         estimate D2E/DX2                !
 ! A305  A(45,46,48)            93.0729         estimate D2E/DX2                !
 ! A306  A(3,48,21)             84.904          estimate D2E/DX2                !
 ! A307  A(3,48,23)             78.1199         estimate D2E/DX2                !
 ! A308  A(3,48,46)             73.1299         estimate D2E/DX2                !
 ! A309  A(3,48,49)            139.8516         estimate D2E/DX2                !
 ! A310  A(3,48,50)            110.4582         estimate D2E/DX2                !
 ! A311  A(21,48,46)            93.2004         estimate D2E/DX2                !
 ! A312  A(21,48,50)           155.6416         estimate D2E/DX2                !
 ! A313  A(23,48,46)           138.0086         estimate D2E/DX2                !
 ! A314  A(23,48,49)            95.1313         estimate D2E/DX2                !
 ! A315  A(23,48,50)           109.3399         estimate D2E/DX2                !
 ! A316  A(46,48,49)            87.8874         estimate D2E/DX2                !
 ! A317  A(46,48,50)           109.0622         estimate D2E/DX2                !
 ! A318  A(49,48,50)           109.1053         estimate D2E/DX2                !
 ! A319  A(12,51,22)            96.7352         estimate D2E/DX2                !
 ! A320  A(12,51,54)            65.5273         estimate D2E/DX2                !
 ! A321  A(12,51,60)           161.0329         estimate D2E/DX2                !
 ! A322  A(12,51,63)            96.785          estimate D2E/DX2                !
 ! A323  A(14,51,22)            97.7933         estimate D2E/DX2                !
 ! A324  A(14,51,52)            91.9611         estimate D2E/DX2                !
 ! A325  A(14,51,60)           114.1314         estimate D2E/DX2                !
 ! A326  A(14,51,63)           137.5221         estimate D2E/DX2                !
 ! A327  A(22,51,52)           135.4948         estimate D2E/DX2                !
 ! A328  A(22,51,54)           150.5961         estimate D2E/DX2                !
 ! A329  A(22,51,60)           100.3782         estimate D2E/DX2                !
 ! A330  A(52,51,60)           114.8522         estimate D2E/DX2                !
 ! A331  A(52,51,63)            95.3369         estimate D2E/DX2                !
 ! A332  A(54,51,60)            95.5088         estimate D2E/DX2                !
 ! A333  A(54,51,63)           149.3054         estimate D2E/DX2                !
 ! A334  A(60,51,63)           100.4062         estimate D2E/DX2                !
 ! A335  A(12,52,54)            82.874          estimate D2E/DX2                !
 ! A336  A(14,54,52)            76.5192         estimate D2E/DX2                !
 ! A337  A(14,54,53)           105.2311         estimate D2E/DX2                !
 ! A338  A(14,54,55)           137.3909         estimate D2E/DX2                !
 ! A339  A(14,54,56)            81.6948         estimate D2E/DX2                !
 ! A340  A(14,54,57)           133.953          estimate D2E/DX2                !
 ! A341  A(51,54,53)            84.9155         estimate D2E/DX2                !
 ! A342  A(51,54,55)           125.1214         estimate D2E/DX2                !
 ! A343  A(51,54,56)           129.0282         estimate D2E/DX2                !
 ! A344  A(52,54,53)           102.8889         estimate D2E/DX2                !
 ! A345  A(52,54,55)            85.0068         estimate D2E/DX2                !
 ! A346  A(52,54,56)           140.0898         estimate D2E/DX2                !
 ! A347  A(52,54,57)           137.1448         estimate D2E/DX2                !
 ! A348  A(53,54,55)           116.27           estimate D2E/DX2                !
 ! A349  A(53,54,56)           114.9909         estimate D2E/DX2                !
 ! A350  A(53,54,57)            96.6265         estimate D2E/DX2                !
 ! A351  A(55,54,56)            89.0632         estimate D2E/DX2                !
 ! A352  A(27,55,54)            79.4283         estimate D2E/DX2                !
 ! A353  A(27,55,57)            79.2899         estimate D2E/DX2                !
 ! A354  A(27,56,54)            79.8444         estimate D2E/DX2                !
 ! A355  A(27,56,57)            79.5681         estimate D2E/DX2                !
 ! A356  A(31,57,54)           133.5068         estimate D2E/DX2                !
 ! A357  A(31,57,55)           139.7674         estimate D2E/DX2                !
 ! A358  A(31,57,56)            81.5516         estimate D2E/DX2                !
 ! A359  A(31,57,58)           102.1704         estimate D2E/DX2                !
 ! A360  A(31,57,64)            76.8013         estimate D2E/DX2                !
 ! A361  A(54,57,58)            98.5905         estimate D2E/DX2                !
 ! A362  A(54,57,64)           137.0876         estimate D2E/DX2                !
 ! A363  A(55,57,56)            88.7575         estimate D2E/DX2                !
 ! A364  A(55,57,58)           116.9258         estimate D2E/DX2                !
 ! A365  A(55,57,64)            85.0589         estimate D2E/DX2                !
 ! A366  A(56,57,58)           116.7136         estimate D2E/DX2                !
 ! A367  A(56,57,64)           137.7297         estimate D2E/DX2                !
 ! A368  A(58,57,64)           103.1947         estimate D2E/DX2                !
 ! A369  A(18,62,39)            87.9876         estimate D2E/DX2                !
 ! A370  A(21,63,51)            87.6189         estimate D2E/DX2                !
 ! A371  A(30,64,57)            82.8261         estimate D2E/DX2                !
 ! A372  A(30,64,66)           104.7266         estimate D2E/DX2                !
 ! A373  A(57,64,66)           108.0834         estimate D2E/DX2                !
 ! A374  L(51,54,57,53,-1)     181.542          estimate D2E/DX2                !
 ! A375  L(51,54,57,53,-2)     177.7147         estimate D2E/DX2                !
 ! D1    D(3,1,2,12)           177.2224         estimate D2E/DX2                !
 ! D2    D(4,1,2,12)           -28.0195         estimate D2E/DX2                !
 ! D3    D(5,1,2,12)            40.7288         estimate D2E/DX2                !
 ! D4    D(8,1,2,12)           -96.5089         estimate D2E/DX2                !
 ! D5    D(46,1,2,12)          114.9837         estimate D2E/DX2                !
 ! D6    D(2,1,3,45)           174.9616         estimate D2E/DX2                !
 ! D7    D(2,1,3,48)           -94.009          estimate D2E/DX2                !
 ! D8    D(4,1,3,45)            20.323          estimate D2E/DX2                !
 ! D9    D(4,1,3,48)           111.3524         estimate D2E/DX2                !
 ! D10   D(5,1,3,45)          -114.2374         estimate D2E/DX2                !
 ! D11   D(5,1,3,48)           -23.208          estimate D2E/DX2                !
 ! D12   D(8,1,3,45)            91.7636         estimate D2E/DX2                !
 ! D13   D(8,1,3,48)          -177.207          estimate D2E/DX2                !
 ! D14   D(21,1,3,45)         -136.2794         estimate D2E/DX2                !
 ! D15   D(21,1,3,48)          -45.25           estimate D2E/DX2                !
 ! D16   D(46,1,3,45)          -44.5175         estimate D2E/DX2                !
 ! D17   D(46,1,3,48)           46.5119         estimate D2E/DX2                !
 ! D18   D(2,1,4,6)           -110.2107         estimate D2E/DX2                !
 ! D19   D(2,1,4,9)            -26.9304         estimate D2E/DX2                !
 ! D20   D(3,1,4,6)             32.5508         estimate D2E/DX2                !
 ! D21   D(3,1,4,9)            115.8311         estimate D2E/DX2                !
 ! D22   D(5,1,4,6)           -178.6738         estimate D2E/DX2                !
 ! D23   D(5,1,4,9)            -95.3935         estimate D2E/DX2                !
 ! D24   D(8,1,4,6)            -40.8468         estimate D2E/DX2                !
 ! D25   D(8,1,4,9)             42.4335         estimate D2E/DX2                !
 ! D26   D(21,1,4,6)          -179.8192         estimate D2E/DX2                !
 ! D27   D(21,1,4,9)           -96.5388         estimate D2E/DX2                !
 ! D28   D(46,1,4,6)            94.7966         estimate D2E/DX2                !
 ! D29   D(46,1,4,9)           178.0769         estimate D2E/DX2                !
 ! D30   D(2,1,5,12)           -41.0199         estimate D2E/DX2                !
 ! D31   D(3,1,5,12)          -112.7172         estimate D2E/DX2                !
 ! D32   D(4,1,5,12)            97.5346         estimate D2E/DX2                !
 ! D33   D(8,1,5,12)            29.5535         estimate D2E/DX2                !
 ! D34   D(46,1,5,12)         -178.6921         estimate D2E/DX2                !
 ! D35   D(2,1,8,6)            179.2474         estimate D2E/DX2                !
 ! D36   D(2,1,8,9)             96.2465         estimate D2E/DX2                !
 ! D37   D(3,1,8,6)            -96.9177         estimate D2E/DX2                !
 ! D38   D(3,1,8,9)           -179.9187         estimate D2E/DX2                !
 ! D39   D(4,1,8,6)             40.7951         estimate D2E/DX2                !
 ! D40   D(4,1,8,9)            -42.2058         estimate D2E/DX2                !
 ! D41   D(5,1,8,6)            109.3199         estimate D2E/DX2                !
 ! D42   D(5,1,8,9)             26.3189         estimate D2E/DX2                !
 ! D43   D(21,1,8,6)          -179.7134         estimate D2E/DX2                !
 ! D44   D(21,1,8,9)            97.2856         estimate D2E/DX2                !
 ! D45   D(46,1,8,6)           -30.5818         estimate D2E/DX2                !
 ! D46   D(46,1,8,9)          -113.5827         estimate D2E/DX2                !
 ! D47   D(3,1,21,12)         -142.2398         estimate D2E/DX2                !
 ! D48   D(3,1,21,22)          -91.2508         estimate D2E/DX2                !
 ! D49   D(3,1,21,23)            1.5558         estimate D2E/DX2                !
 ! D50   D(3,1,21,48)           44.601          estimate D2E/DX2                !
 ! D51   D(3,1,21,49)           85.1849         estimate D2E/DX2                !
 ! D52   D(3,1,21,63)          164.7654         estimate D2E/DX2                !
 ! D53   D(4,1,21,12)           59.7879         estimate D2E/DX2                !
 ! D54   D(4,1,21,22)          110.7769         estimate D2E/DX2                !
 ! D55   D(4,1,21,23)         -156.4165         estimate D2E/DX2                !
 ! D56   D(4,1,21,48)         -113.3713         estimate D2E/DX2                !
 ! D57   D(4,1,21,49)          -72.7874         estimate D2E/DX2                !
 ! D58   D(4,1,21,63)            6.7931         estimate D2E/DX2                !
 ! D59   D(8,1,21,12)          -60.4025         estimate D2E/DX2                !
 ! D60   D(8,1,21,22)           -9.4134         estimate D2E/DX2                !
 ! D61   D(8,1,21,23)           83.3931         estimate D2E/DX2                !
 ! D62   D(8,1,21,48)          126.4384         estimate D2E/DX2                !
 ! D63   D(8,1,21,49)          167.0222         estimate D2E/DX2                !
 ! D64   D(8,1,21,63)         -113.3973         estimate D2E/DX2                !
 ! D65   D(46,1,21,12)         141.6807         estimate D2E/DX2                !
 ! D66   D(46,1,21,22)        -167.3303         estimate D2E/DX2                !
 ! D67   D(46,1,21,23)         -74.5237         estimate D2E/DX2                !
 ! D68   D(46,1,21,48)         -31.4785         estimate D2E/DX2                !
 ! D69   D(46,1,21,49)           9.1054         estimate D2E/DX2                !
 ! D70   D(46,1,21,63)          88.6859         estimate D2E/DX2                !
 ! D71   D(2,1,46,45)          106.7271         estimate D2E/DX2                !
 ! D72   D(2,1,46,48)           12.6828         estimate D2E/DX2                !
 ! D73   D(3,1,46,45)           41.8701         estimate D2E/DX2                !
 ! D74   D(3,1,46,48)          -52.1742         estimate D2E/DX2                !
 ! D75   D(4,1,46,45)          -98.4888         estimate D2E/DX2                !
 ! D76   D(4,1,46,48)          167.4669         estimate D2E/DX2                !
 ! D77   D(5,1,46,45)          179.2188         estimate D2E/DX2                !
 ! D78   D(5,1,46,48)           85.1745         estimate D2E/DX2                !
 ! D79   D(8,1,46,45)          -28.2548         estimate D2E/DX2                !
 ! D80   D(8,1,46,48)         -122.2991         estimate D2E/DX2                !
 ! D81   D(21,1,46,45)         129.1435         estimate D2E/DX2                !
 ! D82   D(21,1,46,48)          35.0992         estimate D2E/DX2                !
 ! D83   D(1,2,12,5)           -40.8837         estimate D2E/DX2                !
 ! D84   D(1,2,12,11)           25.919          estimate D2E/DX2                !
 ! D85   D(1,2,12,14)          179.9002         estimate D2E/DX2                !
 ! D86   D(1,2,12,15)           97.0883         estimate D2E/DX2                !
 ! D87   D(1,2,12,51)         -133.5891         estimate D2E/DX2                !
 ! D88   D(1,2,12,52)         -114.3114         estimate D2E/DX2                !
 ! D89   D(1,3,45,43)          -94.2044         estimate D2E/DX2                !
 ! D90   D(1,3,45,44)          -15.8738         estimate D2E/DX2                !
 ! D91   D(1,3,45,46)           45.2031         estimate D2E/DX2                !
 ! D92   D(1,3,45,47)          153.5238         estimate D2E/DX2                !
 ! D93   D(48,3,45,43)        -173.3263         estimate D2E/DX2                !
 ! D94   D(48,3,45,44)         -94.9956         estimate D2E/DX2                !
 ! D95   D(48,3,45,46)         -33.9187         estimate D2E/DX2                !
 ! D96   D(48,3,45,47)          74.4019         estimate D2E/DX2                !
 ! D97   D(1,3,48,21)           46.483          estimate D2E/DX2                !
 ! D98   D(1,3,48,23)          100.6047         estimate D2E/DX2                !
 ! D99   D(1,3,48,46)          -48.4283         estimate D2E/DX2                !
 ! D100  D(1,3,48,49)           16.7843         estimate D2E/DX2                !
 ! D101  D(1,3,48,50)         -152.9725         estimate D2E/DX2                !
 ! D102  D(45,3,48,21)         129.5588         estimate D2E/DX2                !
 ! D103  D(45,3,48,23)        -176.3195         estimate D2E/DX2                !
 ! D104  D(45,3,48,46)          34.6475         estimate D2E/DX2                !
 ! D105  D(45,3,48,49)          99.8601         estimate D2E/DX2                !
 ! D106  D(45,3,48,50)         -69.8967         estimate D2E/DX2                !
 ! D107  D(1,4,6,7)            179.3737         estimate D2E/DX2                !
 ! D108  D(1,4,6,8)             40.7834         estimate D2E/DX2                !
 ! D109  D(1,4,6,16)           108.8753         estimate D2E/DX2                !
 ! D110  D(1,4,6,43)           -35.6571         estimate D2E/DX2                !
 ! D111  D(1,4,6,44)           -93.8967         estimate D2E/DX2                !
 ! D112  D(9,4,6,7)             95.8802         estimate D2E/DX2                !
 ! D113  D(9,4,6,8)            -42.71           estimate D2E/DX2                !
 ! D114  D(9,4,6,16)            25.3819         estimate D2E/DX2                !
 ! D115  D(9,4,6,43)          -119.1505         estimate D2E/DX2                !
 ! D116  D(9,4,6,44)          -177.3901         estimate D2E/DX2                !
 ! D117  D(1,4,9,8)            -41.9518         estimate D2E/DX2                !
 ! D118  D(1,4,9,10)          -179.953          estimate D2E/DX2                !
 ! D119  D(1,4,9,11)            95.5967         estimate D2E/DX2                !
 ! D120  D(1,4,9,15)            27.6448         estimate D2E/DX2                !
 ! D121  D(1,4,9,26)          -112.399          estimate D2E/DX2                !
 ! D122  D(6,4,9,8)             42.2903         estimate D2E/DX2                !
 ! D123  D(6,4,9,10)           -95.711          estimate D2E/DX2                !
 ! D124  D(6,4,9,11)           179.8387         estimate D2E/DX2                !
 ! D125  D(6,4,9,15)           111.8868         estimate D2E/DX2                !
 ! D126  D(6,4,9,26)           -28.157          estimate D2E/DX2                !
 ! D127  D(1,5,12,2)            40.735          estimate D2E/DX2                !
 ! D128  D(1,5,12,11)          -98.0825         estimate D2E/DX2                !
 ! D129  D(1,5,12,14)          113.6705         estimate D2E/DX2                !
 ! D130  D(1,5,12,15)          -30.3216         estimate D2E/DX2                !
 ! D131  D(1,5,12,51)          133.4194         estimate D2E/DX2                !
 ! D132  D(1,5,12,52)          172.3994         estimate D2E/DX2                !
 ! D133  D(4,6,7,13)           -97.1497         estimate D2E/DX2                !
 ! D134  D(4,6,7,18)           179.8006         estimate D2E/DX2                !
 ! D135  D(8,6,7,13)           -28.1312         estimate D2E/DX2                !
 ! D136  D(8,6,7,18)          -111.1809         estimate D2E/DX2                !
 ! D137  D(16,6,7,13)           40.4932         estimate D2E/DX2                !
 ! D138  D(16,6,7,18)          -42.5564         estimate D2E/DX2                !
 ! D139  D(43,6,7,13)          114.1208         estimate D2E/DX2                !
 ! D140  D(43,6,7,18)           31.0711         estimate D2E/DX2                !
 ! D141  D(44,6,7,13)          179.7457         estimate D2E/DX2                !
 ! D142  D(44,6,7,18)           96.6961         estimate D2E/DX2                !
 ! D143  D(4,6,8,1)            -41.005          estimate D2E/DX2                !
 ! D144  D(4,6,8,9)             42.5135         estimate D2E/DX2                !
 ! D145  D(7,6,8,1)           -110.9501         estimate D2E/DX2                !
 ! D146  D(7,6,8,9)            -27.4316         estimate D2E/DX2                !
 ! D147  D(16,6,8,1)          -179.4937         estimate D2E/DX2                !
 ! D148  D(16,6,8,9)           -95.9751         estimate D2E/DX2                !
 ! D149  D(43,6,8,1)            96.8866         estimate D2E/DX2                !
 ! D150  D(43,6,8,9)          -179.5948         estimate D2E/DX2                !
 ! D151  D(44,6,8,1)            30.2717         estimate D2E/DX2                !
 ! D152  D(44,6,8,9)           113.7903         estimate D2E/DX2                !
 ! D153  D(4,6,16,13)           30.8661         estimate D2E/DX2                !
 ! D154  D(4,6,16,18)          115.0653         estimate D2E/DX2                !
 ! D155  D(7,6,16,13)          -40.2791         estimate D2E/DX2                !
 ! D156  D(7,6,16,18)           43.92           estimate D2E/DX2                !
 ! D157  D(8,6,16,13)           98.5799         estimate D2E/DX2                !
 ! D158  D(8,6,16,18)         -177.221          estimate D2E/DX2                !
 ! D159  D(43,6,16,13)        -172.8742         estimate D2E/DX2                !
 ! D160  D(43,6,16,18)         -88.6751         estimate D2E/DX2                !
 ! D161  D(44,6,16,13)        -114.5513         estimate D2E/DX2                !
 ! D162  D(44,6,16,18)         -30.3522         estimate D2E/DX2                !
 ! D163  D(4,6,43,42)         -107.0862         estimate D2E/DX2                !
 ! D164  D(4,6,43,45)          -14.1565         estimate D2E/DX2                !
 ! D165  D(7,6,43,42)           24.52           estimate D2E/DX2                !
 ! D166  D(7,6,43,45)          117.4497         estimate D2E/DX2                !
 ! D167  D(8,6,43,42)          179.1602         estimate D2E/DX2                !
 ! D168  D(8,6,43,45)          -87.9101         estimate D2E/DX2                !
 ! D169  D(16,6,43,42)          97.2998         estimate D2E/DX2                !
 ! D170  D(16,6,43,45)        -169.7705         estimate D2E/DX2                !
 ! D171  D(44,6,43,42)         -46.0187         estimate D2E/DX2                !
 ! D172  D(44,6,43,45)          46.911          estimate D2E/DX2                !
 ! D173  D(4,6,44,42)         -167.7191         estimate D2E/DX2                !
 ! D174  D(4,6,44,45)           97.5376         estimate D2E/DX2                !
 ! D175  D(7,6,44,42)          -84.179          estimate D2E/DX2                !
 ! D176  D(7,6,44,45)         -178.9223         estimate D2E/DX2                !
 ! D177  D(8,6,44,42)          121.8559         estimate D2E/DX2                !
 ! D178  D(8,6,44,45)           27.1127         estimate D2E/DX2                !
 ! D179  D(16,6,44,42)         -11.5763         estimate D2E/DX2                !
 ! D180  D(16,6,44,45)        -106.3196         estimate D2E/DX2                !
 ! D181  D(43,6,44,42)          49.7335         estimate D2E/DX2                !
 ! D182  D(43,6,44,45)         -45.0097         estimate D2E/DX2                !
 ! D183  D(6,7,13,10)           96.9977         estimate D2E/DX2                !
 ! D184  D(6,7,13,16)          -40.2242         estimate D2E/DX2                !
 ! D185  D(6,7,13,26)           29.216          estimate D2E/DX2                !
 ! D186  D(6,7,13,37)         -176.3542         estimate D2E/DX2                !
 ! D187  D(6,7,13,38)         -115.034          estimate D2E/DX2                !
 ! D188  D(18,7,13,10)         179.8102         estimate D2E/DX2                !
 ! D189  D(18,7,13,16)          42.5883         estimate D2E/DX2                !
 ! D190  D(18,7,13,26)         112.0285         estimate D2E/DX2                !
 ! D191  D(18,7,13,37)         -93.5417         estimate D2E/DX2                !
 ! D192  D(18,7,13,38)         -32.2215         estimate D2E/DX2                !
 ! D193  D(6,7,18,16)           41.8707         estimate D2E/DX2                !
 ! D194  D(6,7,18,19)         -100.6972         estimate D2E/DX2                !
 ! D195  D(6,7,18,20)          -33.4323         estimate D2E/DX2                !
 ! D196  D(6,7,18,40)          176.07           estimate D2E/DX2                !
 ! D197  D(6,7,18,42)          -55.9794         estimate D2E/DX2                !
 ! D198  D(6,7,18,62)          132.1751         estimate D2E/DX2                !
 ! D199  D(13,7,18,16)         -42.1873         estimate D2E/DX2                !
 ! D200  D(13,7,18,19)         175.2448         estimate D2E/DX2                !
 ! D201  D(13,7,18,20)        -117.4903         estimate D2E/DX2                !
 ! D202  D(13,7,18,40)          92.012          estimate D2E/DX2                !
 ! D203  D(13,7,18,42)        -140.0374         estimate D2E/DX2                !
 ! D204  D(13,7,18,62)          48.1171         estimate D2E/DX2                !
 ! D205  D(1,8,9,4)             42.2025         estimate D2E/DX2                !
 ! D206  D(1,8,9,10)           111.7296         estimate D2E/DX2                !
 ! D207  D(1,8,9,11)           -26.3186         estimate D2E/DX2                !
 ! D208  D(1,8,9,15)           -96.1751         estimate D2E/DX2                !
 ! D209  D(1,8,9,26)          -179.3229         estimate D2E/DX2                !
 ! D210  D(6,8,9,4)            -42.2888         estimate D2E/DX2                !
 ! D211  D(6,8,9,10)            27.2383         estimate D2E/DX2                !
 ! D212  D(6,8,9,11)          -110.8098         estimate D2E/DX2                !
 ! D213  D(6,8,9,15)           179.3336         estimate D2E/DX2                !
 ! D214  D(6,8,9,26)            96.1859         estimate D2E/DX2                !
 ! D215  D(4,9,10,13)           96.2585         estimate D2E/DX2                !
 ! D216  D(4,9,10,24)         -179.013          estimate D2E/DX2                !
 ! D217  D(8,9,10,13)           28.0186         estimate D2E/DX2                !
 ! D218  D(8,9,10,24)          112.7472         estimate D2E/DX2                !
 ! D219  D(11,9,10,13)         179.1114         estimate D2E/DX2                !
 ! D220  D(11,9,10,24)         -96.16           estimate D2E/DX2                !
 ! D221  D(15,9,10,13)        -111.0828         estimate D2E/DX2                !
 ! D222  D(15,9,10,24)         -26.3543         estimate D2E/DX2                !
 ! D223  D(26,9,10,13)         -42.6394         estimate D2E/DX2                !
 ! D224  D(26,9,10,24)          42.0891         estimate D2E/DX2                !
 ! D225  D(4,9,11,12)          -97.3989         estimate D2E/DX2                !
 ! D226  D(4,9,11,27)          179.3808         estimate D2E/DX2                !
 ! D227  D(8,9,11,12)          -29.8057         estimate D2E/DX2                !
 ! D228  D(8,9,11,27)         -113.0261         estimate D2E/DX2                !
 ! D229  D(10,9,11,12)         178.6847         estimate D2E/DX2                !
 ! D230  D(10,9,11,27)          95.4643         estimate D2E/DX2                !
 ! D231  D(15,9,11,12)          41.1867         estimate D2E/DX2                !
 ! D232  D(15,9,11,27)         -42.0337         estimate D2E/DX2                !
 ! D233  D(26,9,11,12)         110.3708         estimate D2E/DX2                !
 ! D234  D(26,9,11,27)          27.1504         estimate D2E/DX2                !
 ! D235  D(4,9,15,12)           27.4241         estimate D2E/DX2                !
 ! D236  D(4,9,15,27)          110.3215         estimate D2E/DX2                !
 ! D237  D(8,9,15,12)           95.6688         estimate D2E/DX2                !
 ! D238  D(8,9,15,27)          178.5662         estimate D2E/DX2                !
 ! D239  D(10,9,15,12)        -112.1984         estimate D2E/DX2                !
 ! D240  D(10,9,15,27)         -29.301          estimate D2E/DX2                !
 ! D241  D(11,9,15,12)         -41.1718         estimate D2E/DX2                !
 ! D242  D(11,9,15,27)          41.7256         estimate D2E/DX2                !
 ! D243  D(26,9,15,12)        -179.5241         estimate D2E/DX2                !
 ! D244  D(26,9,15,27)         -96.6267         estimate D2E/DX2                !
 ! D245  D(4,9,26,13)          -26.5218         estimate D2E/DX2                !
 ! D246  D(4,9,26,24)         -110.8604         estimate D2E/DX2                !
 ! D247  D(8,9,26,13)          -95.3618         estimate D2E/DX2                !
 ! D248  D(8,9,26,24)         -179.7004         estimate D2E/DX2                !
 ! D249  D(10,9,26,13)          42.3587         estimate D2E/DX2                !
 ! D250  D(10,9,26,24)         -41.98           estimate D2E/DX2                !
 ! D251  D(11,9,26,13)         112.2013         estimate D2E/DX2                !
 ! D252  D(11,9,26,24)          27.8627         estimate D2E/DX2                !
 ! D253  D(15,9,26,13)        -179.3983         estimate D2E/DX2                !
 ! D254  D(15,9,26,24)          96.2631         estimate D2E/DX2                !
 ! D255  D(9,10,13,7)          -96.2308         estimate D2E/DX2                !
 ! D256  D(9,10,13,16)         -26.2083         estimate D2E/DX2                !
 ! D257  D(9,10,13,26)          42.6078         estimate D2E/DX2                !
 ! D258  D(9,10,13,37)        -179.4906         estimate D2E/DX2                !
 ! D259  D(9,10,13,38)         113.7769         estimate D2E/DX2                !
 ! D260  D(24,10,13,7)        -179.748          estimate D2E/DX2                !
 ! D261  D(24,10,13,16)       -109.7254         estimate D2E/DX2                !
 ! D262  D(24,10,13,26)        -40.9093         estimate D2E/DX2                !
 ! D263  D(24,10,13,37)         96.9923         estimate D2E/DX2                !
 ! D264  D(24,10,13,38)         30.2598         estimate D2E/DX2                !
 ! D265  D(9,10,24,17)        -113.9309         estimate D2E/DX2                !
 ! D266  D(9,10,24,25)         179.9824         estimate D2E/DX2                !
 ! D267  D(9,10,24,26)         -42.2214         estimate D2E/DX2                !
 ! D268  D(9,10,24,28)          95.6998         estimate D2E/DX2                !
 ! D269  D(9,10,24,29)          28.1084         estimate D2E/DX2                !
 ! D270  D(13,10,24,17)        -30.6434         estimate D2E/DX2                !
 ! D271  D(13,10,24,25)        -96.73           estimate D2E/DX2                !
 ! D272  D(13,10,24,26)         41.0662         estimate D2E/DX2                !
 ! D273  D(13,10,24,28)        178.9874         estimate D2E/DX2                !
 ! D274  D(13,10,24,29)        111.3959         estimate D2E/DX2                !
 ! D275  D(9,11,12,2)           30.3231         estimate D2E/DX2                !
 ! D276  D(9,11,12,5)           97.2507         estimate D2E/DX2                !
 ! D277  D(9,11,12,14)        -112.4668         estimate D2E/DX2                !
 ! D278  D(9,11,12,15)         -41.5979         estimate D2E/DX2                !
 ! D279  D(9,11,12,21)          92.5418         estimate D2E/DX2                !
 ! D280  D(9,11,12,51)        -176.1966         estimate D2E/DX2                !
 ! D281  D(9,11,12,52)        -179.3663         estimate D2E/DX2                !
 ! D282  D(27,11,12,2)         113.7298         estimate D2E/DX2                !
 ! D283  D(27,11,12,5)        -179.3426         estimate D2E/DX2                !
 ! D284  D(27,11,12,14)        -29.0601         estimate D2E/DX2                !
 ! D285  D(27,11,12,15)         41.8089         estimate D2E/DX2                !
 ! D286  D(27,11,12,21)        175.9485         estimate D2E/DX2                !
 ! D287  D(27,11,12,51)        -92.7898         estimate D2E/DX2                !
 ! D288  D(27,11,12,52)        -95.9596         estimate D2E/DX2                !
 ! D289  D(9,11,27,15)          42.0545         estimate D2E/DX2                !
 ! D290  D(9,11,27,28)         -95.4869         estimate D2E/DX2                !
 ! D291  D(9,11,27,29)         -27.5662         estimate D2E/DX2                !
 ! D292  D(9,11,27,55)        -179.698          estimate D2E/DX2                !
 ! D293  D(9,11,27,56)         113.5143         estimate D2E/DX2                !
 ! D294  D(12,11,27,15)        -41.415          estimate D2E/DX2                !
 ! D295  D(12,11,27,28)       -178.9564         estimate D2E/DX2                !
 ! D296  D(12,11,27,29)       -111.0356         estimate D2E/DX2                !
 ! D297  D(12,11,27,55)         96.8326         estimate D2E/DX2                !
 ! D298  D(12,11,27,56)         30.0448         estimate D2E/DX2                !
 ! D299  D(2,12,14,54)         179.7895         estimate D2E/DX2                !
 ! D300  D(5,12,14,54)         108.4926         estimate D2E/DX2                !
 ! D301  D(11,12,14,54)        -25.6045         estimate D2E/DX2                !
 ! D302  D(15,12,14,54)        -96.1632         estimate D2E/DX2                !
 ! D303  D(21,12,14,54)        134.8454         estimate D2E/DX2                !
 ! D304  D(52,12,14,54)         46.8405         estimate D2E/DX2                !
 ! D305  D(2,12,15,9)          -95.8755         estimate D2E/DX2                !
 ! D306  D(2,12,15,27)        -178.9548         estimate D2E/DX2                !
 ! D307  D(5,12,15,9)          -25.8133         estimate D2E/DX2                !
 ! D308  D(5,12,15,27)        -108.8925         estimate D2E/DX2                !
 ! D309  D(11,12,15,9)          41.5757         estimate D2E/DX2                !
 ! D310  D(11,12,15,27)        -41.5036         estimate D2E/DX2                !
 ! D311  D(14,12,15,9)         178.0123         estimate D2E/DX2                !
 ! D312  D(14,12,15,27)         94.9331         estimate D2E/DX2                !
 ! D313  D(21,12,15,9)         -91.4687         estimate D2E/DX2                !
 ! D314  D(21,12,15,27)       -174.5479         estimate D2E/DX2                !
 ! D315  D(51,12,15,9)         175.3991         estimate D2E/DX2                !
 ! D316  D(51,12,15,27)         92.3199         estimate D2E/DX2                !
 ! D317  D(52,12,15,9)         120.1614         estimate D2E/DX2                !
 ! D318  D(52,12,15,27)         37.0821         estimate D2E/DX2                !
 ! D319  D(11,12,21,1)         -56.5333         estimate D2E/DX2                !
 ! D320  D(11,12,21,22)        147.5776         estimate D2E/DX2                !
 ! D321  D(11,12,21,23)       -126.6586         estimate D2E/DX2                !
 ! D322  D(11,12,21,48)        -47.5194         estimate D2E/DX2                !
 ! D323  D(11,12,21,49)         17.6908         estimate D2E/DX2                !
 ! D324  D(11,12,21,63)         97.8025         estimate D2E/DX2                !
 ! D325  D(14,12,21,1)         141.3397         estimate D2E/DX2                !
 ! D326  D(14,12,21,22)        -14.5494         estimate D2E/DX2                !
 ! D327  D(14,12,21,23)         71.2144         estimate D2E/DX2                !
 ! D328  D(14,12,21,48)        150.3536         estimate D2E/DX2                !
 ! D329  D(14,12,21,49)       -144.4362         estimate D2E/DX2                !
 ! D330  D(14,12,21,63)        -64.3245         estimate D2E/DX2                !
 ! D331  D(15,12,21,1)          56.9528         estimate D2E/DX2                !
 ! D332  D(15,12,21,22)        -98.9363         estimate D2E/DX2                !
 ! D333  D(15,12,21,23)        -13.1725         estimate D2E/DX2                !
 ! D334  D(15,12,21,48)         65.9667         estimate D2E/DX2                !
 ! D335  D(15,12,21,49)        131.1769         estimate D2E/DX2                !
 ! D336  D(15,12,21,63)       -148.7114         estimate D2E/DX2                !
 ! D337  D(51,12,21,1)        -179.1605         estimate D2E/DX2                !
 ! D338  D(51,12,21,22)         24.9503         estimate D2E/DX2                !
 ! D339  D(51,12,21,23)        110.7142         estimate D2E/DX2                !
 ! D340  D(51,12,21,48)       -170.1467         estimate D2E/DX2                !
 ! D341  D(51,12,21,49)       -104.9365         estimate D2E/DX2                !
 ! D342  D(51,12,21,63)        -24.8248         estimate D2E/DX2                !
 ! D343  D(52,12,21,1)        -144.1153         estimate D2E/DX2                !
 ! D344  D(52,12,21,22)         59.9956         estimate D2E/DX2                !
 ! D345  D(52,12,21,23)        145.7594         estimate D2E/DX2                !
 ! D346  D(52,12,21,48)       -135.1014         estimate D2E/DX2                !
 ! D347  D(52,12,21,49)        -69.8912         estimate D2E/DX2                !
 ! D348  D(52,12,21,63)         10.2205         estimate D2E/DX2                !
 ! D349  D(2,12,51,22)          14.1886         estimate D2E/DX2                !
 ! D350  D(2,12,51,54)        -141.3269         estimate D2E/DX2                !
 ! D351  D(2,12,51,60)        -140.1965         estimate D2E/DX2                !
 ! D352  D(2,12,51,63)          64.8688         estimate D2E/DX2                !
 ! D353  D(5,12,51,22)         -66.887          estimate D2E/DX2                !
 ! D354  D(5,12,51,54)         137.5975         estimate D2E/DX2                !
 ! D355  D(5,12,51,60)         138.728          estimate D2E/DX2                !
 ! D356  D(5,12,51,63)         -16.2068         estimate D2E/DX2                !
 ! D357  D(11,12,51,22)       -147.3875         estimate D2E/DX2                !
 ! D358  D(11,12,51,54)         57.097          estimate D2E/DX2                !
 ! D359  D(11,12,51,60)         58.2274         estimate D2E/DX2                !
 ! D360  D(11,12,51,63)        -96.7073         estimate D2E/DX2                !
 ! D361  D(15,12,51,22)         98.3483         estimate D2E/DX2                !
 ! D362  D(15,12,51,54)        -57.1672         estimate D2E/DX2                !
 ! D363  D(15,12,51,60)        -56.0367         estimate D2E/DX2                !
 ! D364  D(15,12,51,63)        149.0286         estimate D2E/DX2                !
 ! D365  D(21,12,51,22)        -25.382          estimate D2E/DX2                !
 ! D366  D(21,12,51,54)        179.1025         estimate D2E/DX2                !
 ! D367  D(21,12,51,60)       -179.7671         estimate D2E/DX2                !
 ! D368  D(21,12,51,63)         25.2982         estimate D2E/DX2                !
 ! D369  D(2,12,52,54)        -117.1864         estimate D2E/DX2                !
 ! D370  D(5,12,52,54)         170.4224         estimate D2E/DX2                !
 ! D371  D(11,12,52,54)         89.7038         estimate D2E/DX2                !
 ! D372  D(14,12,52,54)        -46.7028         estimate D2E/DX2                !
 ! D373  D(15,12,52,54)         13.7693         estimate D2E/DX2                !
 ! D374  D(21,12,52,54)       -142.2805         estimate D2E/DX2                !
 ! D375  D(7,13,16,6)           40.4659         estimate D2E/DX2                !
 ! D376  D(7,13,16,18)         -44.0081         estimate D2E/DX2                !
 ! D377  D(10,13,16,6)         -30.0355         estimate D2E/DX2                !
[...]
 0.00002654,-0.00000688,0.00001013,0.00000218,0.00000663,-0.00000533,0.
 00000720,-0.00000049,-0.00000005,-0.00002795,-0.00000938,0.00001284,0.
 00000032,-0.00000274,-0.00000359,0.00001952,0.00000738,-0.00001596,0.0
 0000005,-0.00000404,0.00000914,0.00001378,0.00000711,-0.00001060,0.000
 01654,0.00001199,-0.00002321,0.00005791,-0.00013376,0.00015329,0.00021
 387,0.00030037,0.00022939,0.00017930,-0.00001325,-0.00012229,0.0003295
 6,-0.00040115,-0.00224393,-0.00082146,-0.00077132,0.00938475,-0.000817
 03,0.00236989,-0.00061452,-0.00355721,-0.01686855,-0.00411035,-0.00042
 389,0.00104692,0.00033403,0.00009535,-0.00022108,0.00032204,-0.0000754
 3,0.00002290,-0.00001180,0.00002400,0.00000821,-0.00001714,0.00000238,
 -0.00000311,0.00000102,-0.00001325,-0.00000348,0.00002496,0.10084240,0
 .25102446,0.00000709,0.00002989,-0.00002268,0.00003219,-0.00001141,-0.
 00001563,0.00002662,0.00000108,0.00001532,0.00002244,0.00002117,-0.000
 00805,-0.00000979,-0.00002182,-0.00000191,-0.00000038,0.00002457,0.000
 00799,-0.00000470,-0.00001117,0.00000973,-0.00002692,-0.00001994,0.000
 01289,-0.00001837,-0.00007506,0.00007039,-0.00004445,-0.00003712,-0.00
 003614,-0.00032264,-0.00019449,0.00026929,-0.00003081,0.00006710,-0.00
 019889,0.00004285,0.00005476,-0.00005138,0.00025850,0.00022953,-0.0001
 0353,0.00004310,-0.00014649,-0.00004421,-0.00000028,-0.00000873,0.0000
 0879,0.00028381,0.00004835,-0.00006411,-0.00000599,0.00000558,0.000032
 41,-0.00000191,0.00000437,-0.00002617,0.00000467,-0.00000129,-0.000020
 84,0.00010925,0.00001911,0.00010675,-0.00004689,0.00001271,-0.00000713
 ,0.00002064,-0.00005499,-0.00004395,-0.00012602,-0.00009404,-0.0002044
 4,-0.00004420,-0.00011710,-0.00018827,-0.00006387,0.00010077,0.0000571
 2,0.00163013,-0.00293738,-0.00265357,0.00225837,0.00133639,0.00105252,
 0.00107139,0.00054219,0.00014106,0.00586795,-0.00727021,-0.01630206,-0
 .00266346,-0.00648460,-0.00112856,0.00119011,-0.00086409,0.00171606,-0
 .00260075,-0.00080570,0.00081605,-0.00322370,0.00518004,0.00095582,-0.
 00000515,0.00003278,-0.00005842,0.00012439,-0.00009194,-0.00007636,0.0
 0000261,0.00000309,0.00000837,-0.00000435,-0.00000122,-0.00000120,0.00
 001408,-0.00000598,0.00001723,0.00000565,0.00001011,-0.00002030,-0.000
 00256,0.00000187,0.00000018,0.00004131,-0.00002391,0.00004597,0.000005
 68,0.00000636,-0.00000291,-0.00000066,0.00000131,-0.00001278,-0.000053
 10,0.00000936,-0.00000700,0.00001738,-0.00001074,-0.00000379,0.0000102
 0,-0.00000389,0.00000349,-0.00008202,0.00002553,-0.00004169,-0.0000266
 3,0.00001101,-0.00000464,0.00001270,-0.00000858,0.00000480,0.00005558,
 0.00025357,-0.00038844,0.00019077,0.00006226,-0.00046648,0.00013076,0.
 00020324,-0.00016994,-0.00017233,-0.00210887,0.00373718,0.00048164,0.0
 0409604,-0.00839357,0.00455667,-0.00033871,-0.00379325,-0.01442348,0.0
 0442405,-0.05727108,-0.00423801,0.00132420,-0.00123897,0.00023609,-0.0
 0013693,-0.00025584,-0.00001724,0.00002926,-0.00003988,0.00000482,0.00
 000498,-0.00000775,0.00000398,0.00000407,-0.00001563,-0.00004774,-0.00
 001363,0.00000899,0.02224490,0.01680993,0.09597638,0.00000618,-0.00001
 046,0.00000824,0.00001249,-0.00000954,0.00000646,-0.00000700,0.0000018
 4,-0.00000545,-0.00001083,0.00000088,-0.00000663,0.00000286,0.00000505
 ,0.00000434,0.00000196,0.00000212,-0.00000839,-0.00000064,0.00000158,-
 0.00000524,-0.00001058,-0.00000185,-0.00000291,0.00001804,-0.00001392,
 -0.00000500,0.00001689,-0.00003186,0.00002298,-0.00004077,-0.00009852,
 -0.00005700,0.00005260,0.00005353,-0.00006179,0.00000537,-0.00001232,0
 .00002974,-0.00000377,-0.00005740,0.00004706,-0.00000604,0.00007578,-0
 .00002127,0.00000155,0.00000867,-0.00000090,0.00015492,-0.00005200,0.0
 0000500,0.00000484,-0.00000100,-0.00000471,0.00000108,-0.00000213,0.00
 001449,0.00000081,0.00000101,0.00000327,-0.00004473,0.00000238,0.00000
 378,0.00001134,-0.00000347,-0.00000152,0.00000106,0.00000705,0.0000018
 6,0.00019203,0.00009423,0.00002734,-0.00007965,0.00010471,-0.00008555,
 0.00002057,-0.00002037,-0.00004315,-0.00032538,0.00017849,0.00012069,0
 .00034185,0.00058680,-0.00010681,-0.00103289,-0.00035681,-0.00035272,-
 0.00677298,0.00003598,0.00727505,-0.07398128,0.00963626,0.10608718,0.0
 0050238,-0.00051101,0.00022304,-0.00044372,-0.00014541,-0.00018793,0.0
 0040369,0.00029810,-0.00094547,0.00000892,-0.00002199,-0.00001386,-0.0
 0000452,-0.00006236,-0.00002273,0.00000006,0.00001182,-0.00002489,0.00
 000517,0.00000242,0.00000745,-0.00000523,0.00001063,-0.00000700,0.0000
 0115,-0.00000132,0.00000612,0.00000556,-0.00000693,0.00000748,-0.00003
 082,0.00000552,-0.00001922,-0.00000221,-0.00000144,0.00000069,0.000002
 34,-0.00000113,0.00000530,0.00001233,-0.00000910,0.00001302,-0.0000044
 4,0.00000383,-0.00000352,0.00000455,0.00000506,-0.00000947,0.00001930,
 -0.00001338,0.00002224,0.00000680,-0.00000204,-0.00000710,0.00000361,0
 .00000808,-0.00001398,-0.00003455,-0.00004480,0.00009809,0.00006029,-0
 .00002527,0.00009115,0.,-0.00001994,0.00002748,-0.00010702,0.00002190,
 -0.00054175,0.00045414,-0.00007492,0.00035199,0.00004229,0.00035899,-0
 .00003401,0.00043876,0.00131224,-0.00276239,-0.00029805,0.00004393,-0.
 00007091,-0.00001763,-0.00008995,0.00001985,0.00000511,-0.00000476,0.0
 0000078,0.00000934,0.00000187,-0.00000462,-0.00000202,-0.00000346,0.00
 000373,0.00001445,0.00000368,-0.00000025,0.00015438,-0.00110796,0.0002
 6435,0.08018262,-0.00000842,0.00000136,-0.00001020,0.00000126,0.000004
 64,0.00000862,0.00000089,-0.00000083,0.00000059,-0.00000268,-0.0000042
 0,-0.00000127,0.00000833,-0.00000525,0.00000085,-0.00000727,0.00000752
 ,-0.00000321,-0.00000280,-0.00000022,0.00000453,-0.00000768,0.00000535
 ,0.00000806,0.00002556,0.00002439,0.00000935,-0.00000438,0.00005913,-0
 .00000181,-0.00004452,-0.00012544,-0.00008270,-0.00000516,0.00002756,-
 0.00003382,0.00003219,0.00001193,0.00000199,-0.00000293,-0.00009321,-0
 .00003336,0.00001804,-0.00002198,-0.00004690,-0.00000433,-0.00000376,0
 .00000040,-0.00015646,0.00000435,0.00008644,-0.00000464,0.00000309,-0.
 00000093,0.00000059,0.00000244,-0.00000176,0.00000192,-0.00000272,-0.0
 0000473,-0.00001766,-0.00001097,0.00000706,0.00000017,-0.00000320,0.00
 000851,0.00000168,0.00000524,0.00000309,0.00036511,0.00007090,-0.00010
 727,-0.00013015,0.00005927,0.00001011,-0.00003642,-0.00003362,-0.00000
 147,-0.00003267,-0.00047803,0.00041139,0.00005954,0.00019611,-0.000358
 76,0.00036898,0.00003752,0.00042030,-0.00043689,-0.00084426,0.00255949
 ,0.01647317,-0.01595258,-0.03017764,-0.00069900,0.00000236,-0.00022809
 ,0.00045328,-0.00005815,-0.00046325,-0.00029384,0.00049208,-0.00053497
 ,-0.00000115,-0.00003493,0.00003147,-0.00004789,0.00003276,-0.00001816
 ,-0.00001266,-0.00000127,-0.00000184,-0.00000839,0.00000078,0.00001098
 ,-0.00001161,0.00001360,-0.00001108,0.00000041,-0.00000042,0.00000198,
 0.00000581,-0.00000881,0.00000990,-0.00000170,-0.00000562,0.00000937,0
 .00000152,0.00000104,-0.00000016,0.00000041,-0.00000142,-0.00000241,-0
 .00000700,0.00000035,0.00000097,0.00000155,-0.00000110,0.00000206,0.00
 000433,0.00000133,-0.00000316,0.00000963,-0.00000128,0.00000272,0.0000
 0305,-0.00000307,-0.00000337,0.00000292,0.00000257,-0.00000539,0.00000
 604,-0.00002813,0.00005380,-0.00000588,-0.00001363,0.00003382,-0.00005
 625,0.00008696,0.00004282,0.00036493,0.00030236,-0.00061463,-0.0004686
 7,0.00038341,0.00002862,0.00007851,-0.00100822,0.00067162,-0.00510612,
 -0.00013412,0.00889930,0.00090222,-0.00047385,0.00034256,-0.00000547,-
 0.00001808,0.00012535,-0.00000793,-0.00000210,0.00000195,0.00000604,0.
 00000267,-0.00000484,0.00000015,-0.00000139,-0.00000062,0.00000159,-0.
 00000716,0.00000639,-0.00146503,-0.00189517,-0.00031605,-0.01043822,0.
 01911630,0.00000061,-0.00000910,0.00001431,0.00000460,-0.00000351,0.00
 000492,-0.00000511,0.00000085,-0.00000623,-0.00001448,0.00000177,-0.00
 000927,-0.00000295,-0.00000146,0.00000694,0.00000549,0.00000021,-0.000
 00007,0.00000313,0.00000753,-0.00000745,-0.00001034,0.00000316,-0.0000
 0422,0.00001171,-0.00000826,0.00002626,0.00002128,-0.00001659,-0.00002
 075,0.00000360,0.00004268,0.00000645,0.00004113,0.00004743,-0.00003437
 ,-0.00000860,-0.00001059,0.00004192,-0.00000998,-0.00000451,0.00002100
 ,-0.00003939,0.00000768,0.00000121,0.00000077,0.00000273,-0.00000783,0
 .00004151,-0.00003865,0.00001747,0.00000197,-0.00000191,-0.00001225,0.
 00000142,-0.00000382,0.00001462,-0.00000214,0.00000246,0.00001048,-0.0
 0002059,0.00000352,0.00000482,0.00001211,-0.00000602,-0.00000548,0.000
 00391,0.00000154,-0.00000066,0.00000094,0.00000302,0.00003200,-0.00010
 781,0.00010996,0.00006442,0.00001927,0.00000612,-0.00003427,-0.0003929
 0,-0.00007953,-0.00017519,0.00021795,0.00029932,-0.00006590,-0.0001424
 0,0.00013109,-0.00001371,-0.00194596,0.00025851,0.00362322,0.10972097,
 -0.02110444,-0.18997596,-0.00008181,0.00001906,0.00017078,0.00020121,-
 0.00023852,-0.00020897,-0.00002858,0.00012987,-0.00077340,0.00001094,-
 0.00002511,0.00000691,-0.00006070,-0.00002504,0.00001311,0.00000353,0.
 00000265,-0.00001260,0.00000490,-0.00000739,0.00001080,0.00000155,0.00
 001197,-0.00001079,-0.00000202,-0.00000643,0.00001155,0.00000357,-0.00
 000291,0.00000077,-0.00002437,0.00001167,-0.00002587,-0.00000274,-0.00
 000516,-0.00000032,0.00000177,0.00000028,0.00000654,0.00001976,-0.0000
 0654,0.00000855,-0.00000508,0.00000382,-0.00000382,-0.00000142,0.00000
 250,-0.00000399,0.00000969,-0.00000688,0.00000740,0.00000348,-0.000001
 08,-0.00000291,-0.00000099,0.00000238,-0.00000380,-0.00002169,0.000012
 45,0.00005024,0.00009562,0.00001690,-0.00000892,-0.00005148,-0.0000096
 5,-0.00002280,-0.00017616,-0.00012588,-0.00018060,0.00013055,-0.000192
 88,0.00022685,0.00007424,0.00167135,-0.00021332,0.00229639,0.00142276,
 -0.00445402,-0.00036664,-0.00057809,0.00053024,-0.00004572,0.00001063,
 -0.00001888,0.00001452,-0.00000581,0.00000026,-0.00000059,-0.00000188,
 0.00000256,-0.00000230,-0.00000431,0.00000906,0.00000795,-0.00000513,-
 0.00000196,-0.00015447,-0.00121510,0.00019813,-0.10926174,0.01960609,0
 .19134023,0.00000396,-0.00001167,0.00001018,-0.00000543,0.00001244,0.0
 0000365,-0.00000851,0.00000264,-0.00000435,-0.00000984,0.00000136,-0.0
 0000595,-0.00002334,-0.00000759,-0.00000033,0.00000261,-0.00000695,0.0
 0000012,-0.00000959,0.00000089,0.00000183,-0.00000172,0.00000054,-0.00
 000267,0.00002631,0.00000243,0.00001322,-0.00008226,0.00003169,0.00002
 123,0.00004036,0.00001483,-0.00002089,0.00007406,0.00000755,0.00005094
 ,-0.00003309,-0.00004120,0.00001396,-0.00008977,-0.00005449,-0.0000489
 7,0.00001103,0.00000213,-0.00001904,0.00000059,0.00000521,-0.00000481,
 0.00005697,-0.00004315,0.00000428,-0.00000003,0.00000109,-0.00000760,0
 .00000108,-0.00000249,0.00001228,-0.00000049,0.00000091,0.00000540,-0.
 00003739,0.00000813,-0.00000057,0.00001950,-0.00000398,-0.00000197,0.0
 0000643,0.00000405,-0.00000145,-0.00054957,0.00015925,0.00027206,0.000
 17967,0.00013282,0.00005418,-0.00001767,0.00003844,0.00003257,0.000181
 16,-0.00019661,0.00020278,-0.00070488,0.00066864,0.00033049,-0.0004129
 4,0.00011721,-0.00006007,0.00397419,0.00614316,0.00053992,0.00031435,0
 .00029084,0.00008345,-0.00007789,-0.00022938,0.00033244,-0.00046079,-0
 .00034371,0.00021570,0.00079934,-0.00040393,0.00007974,0.00000401,0.00
 000056,0.00000168,-0.00001028,-0.00002727,-0.00001436,-0.00000848,-0.0
 0000172,0.00000406,0.00001281,-0.00000506,0.00000845,0.00000122,0.0000
 0005,-0.00000398,0.,-0.00000097,0.00000514,0.00000372,-0.00000154,0.00
 000105,-0.00002458,0.00000631,-0.00001824,-0.00000215,-0.00000262,0.00
 000042,0.00000221,0.00000008,0.00000538,0.00001847,-0.00000583,0.00000
 969,-0.00000943,0.00000282,-0.00000494,0.00000043,0.00000252,-0.000004
 76,0.00000716,-0.00000859,0.00001041,0.00000708,-0.00000215,-0.0000070
 6,0.00000231,0.00000543,-0.00000927,0.00004345,-0.00010507,0.00012339,
 -0.00002898,0.00010544,0.00013367,0.00018243,-0.00009865,0.00010642,-0
 .00021407,0.00013248,-0.00106762,0.00048615,0.00014637,0.00046245,0.00
 002058,0.00024128,-0.00000463,-0.00265115,-0.00156905,0.00169346,0.000
 18735,-0.00004680,-0.00063707,0.00002750,0.00008218,-0.00011436,-0.000
 01511,-0.00000849,0.00001503,0.00000482,0.00000056,-0.00000198,-0.0000
 0174,-0.00000232,0.00000450,0.00002050,0.00000287,0.00000106,-0.085956
 60,-0.11746224,-0.01296431,0.00008310,0.00034203,-0.00000086,0.0846409
 2,-0.00000093,-0.00000473,-0.00001429,-0.00000079,0.00000994,-0.000002
 75,0.00000195,-0.00000247,0.00000204,0.00000340,-0.00000295,0.00001526
 ,0.00000978,0.00001135,-0.00001084,-0.00000120,-0.00000842,0.00000622,
 0.00000723,-0.00000883,0.00000018,0.00001150,-0.00000251,-0.00000093,-
 0.00002040,0.00002055,0.00002539,0.00005334,0.00006352,0.00008887,0.00
 009667,-0.00001088,-0.00007626,-0.00003379,-0.00005995,0.00012150,-0.0
 0003541,0.00003658,-0.00001388,-0.00008580,0.00002213,0.00000229,0.000
 02818,0.00004800,0.00000732,0.00000094,-0.00000460,0.00000277,-0.00009
 351,-0.00005508,0.00004966,-0.00000334,0.00000197,-0.00000265,-0.00000
 100,0.00000151,-0.00000996,0.,-0.00000260,-0.00000192,0.00000566,0.000
 01026,-0.00002697,-0.00000267,0.00000379,0.00000233,-0.00000784,0.0000
 0663,0.00000748,0.00030839,-0.00029386,-0.00007495,0.00003081,-0.00002
 330,-0.00008271,0.00002172,-0.00012949,0.00000013,-0.00025820,0.000077
 72,-0.00005512,0.00001935,0.00035103,-0.00022573,0.00024655,-0.0000371
 0,0.00019887,-0.00302047,-0.00486367,-0.00049277,-0.00000649,-0.001296
 21,-0.00138931,-0.00015955,0.00024428,-0.00040522,0.00048347,0.0006197
 2,-0.00023703,-0.00037936,0.00001203,0.00051757,-0.00000360,0.00000812
 ,0.00000047,-0.00002095,0.00000626,0.00001009,0.00000187,0.00000876,0.
 00000546,0.00000056,0.00000188,-0.00000404,0.00000491,-0.00000343,0.00
 000598,-0.00000154,0.00000116,-0.00000156,-0.00000501,0.00000314,-0.00
 000250,0.00002048,-0.00000090,0.00001309,0.00000031,0.00000122,0.00000
 036,-0.00000377,-0.00000026,-0.00000310,-0.00000639,0.00000438,-0.0000
 0918,0.00000045,-0.00000123,0.00000498,-0.00000426,-0.00000271,0.00000
 601,0.00000761,0.00000296,-0.00000305,-0.00000469,-0.00001020,0.000005
 72,-0.00000529,-0.00000384,0.00000877,0.00001146,-0.00004224,0.0000314
 7,-0.00002077,0.00002253,0.00012449,-0.00002461,0.00005039,-0.00007155
 ,-0.00032397,-0.00036485,0.00019474,0.00060683,0.00072141,0.00083369,-
 0.00013390,-0.00009395,0.00027974,0.00091688,0.00068149,-0.00106367,0.
 00020081,-0.00005152,0.00009739,0.00000396,-0.00005137,0.00001062,-0.0
 0000333,0.00000513,-0.00000786,-0.00000713,-0.00000160,0.00000378,-0.0
 0000053,0.00000195,-0.00000174,0.00000031,0.00000848,0.00000113,-0.110
 77374,-0.18881989,-0.01277456,0.00037260,0.00031885,-0.00010179,0.1119
 7626,0.19286553,-0.00000661,-0.00000436,0.00003028,0.00000947,-0.00000
 058,0.00000717,-0.00000764,-0.00000074,-0.00000746,-0.00001356,-0.0000
 0097,-0.00000909,0.00001450,0.00000584,-0.00001270,-0.00000766,0.00000
 668,-0.00001288,0.00000710,0.00000531,-0.00000967,-0.00000918,0.000007
 89,-0.00000911,-0.00001884,-0.00000048,0.00002195,0.00001648,-0.000002
 48,-0.00003631,0.00000810,0.00001700,-0.00005994,-0.00000401,0.0000552
 9,-0.00010218,-0.00004540,-0.00000958,0.00005692,-0.00001426,-0.000174
 73,0.00005625,-0.00000903,0.00012508,0.00007182,0.00000435,0.00000591,
 -0.00000786,-0.00006241,0.00005399,-0.00001845,0.00000103,-0.00000648,
 -0.00001375,-0.00000007,-0.00000634,0.00001452,-0.00000310,0.00000345,
 0.00001545,-0.00006914,-0.00003271,0.00001973,0.00001298,-0.00001286,0
 .00000819,-0.00000020,0.00001787,0.00000972,-0.00000289,-0.00009994,0.
 00013620,-0.00007830,-0.00001281,0.00015356,-0.00001974,0.00000544,-0.
 00000665,0.00009881,-0.00069439,0.00022390,0.00036925,0.00002294,0.000
 24150,-0.00017712,0.00013147,-0.00007944,0.00216953,-0.00351749,-0.001
 71601,-0.00035342,-0.00078336,-0.00040780,-0.00006787,0.00020048,-0.00
 008410,0.00070548,-0.00029502,-0.00033217,-0.00094593,0.00044961,-0.00
 054891,-0.00000724,-0.00001330,-0.00000186,-0.00007276,0.00002310,0.00
 005580,0.00001441,-0.00000410,0.00000470,0.00000842,-0.00001013,0.0000
 0304,0.00000013,0.00000747,-0.00001176,-0.00000415,-0.00000738,0.00001
 268,0.00000108,0.00000348,-0.00000598,-0.00002192,0.00001796,-0.000031
 09,-0.00000340,-0.00000538,-0.00000078,0.00000190,0.00000083,0.0000086
 2,0.00002691,-0.00000634,0.00000265,-0.00000358,0.00000344,0.00000094,
 -0.00000621,0.00000132,0.00000025,0.00002931,0.00000173,-0.00000326,0.
 00002238,0.00000111,-0.00000399,-0.00000562,0.00000064,0.00000267,-0.0
 0002100,-0.00002596,0.00019633,0.00003721,0.00010591,0.00003351,0.0001
 0487,-0.00021259,0.00009953,0.00027394,0.00079108,-0.00138927,-0.00035
 727,0.00004733,-0.00058008,-0.00007909,0.00010349,-0.00015855,-0.00474
 765,-0.00783988,-0.00161326,0.00029340,-0.00017460,0.00049658,-0.00009
 151,-0.00002459,0.00011130,-0.00000383,-0.00001309,0.00002055,-0.00000
 702,-0.00000459,0.00000779,-0.00000197,-0.00000286,0.00001082,-0.00000
 747,-0.00003283,0.00000959,-0.00693805,-0.00232352,-0.01188149,-0.0001
 0036,-0.00034871,-0.00016347,0.01016546,0.01448201,0.01717477\\0.00001
 001,-0.00000620,0.00002811,0.00000157,-0.00000789,0.00000068,0.0000030
 4,0.00000501,-0.00000715,-0.00000532,0.00000007,0.00000227,0.00000127,
 0.00001177,0.00000187,0.00001334,-0.00000067,-0.00000380,-0.00000439,-
 0.00000187,-0.00000382,-0.00000090,-0.00000098,-0.00000166,0.00000962,
 0.00000214,-0.00001182,-0.00000299,0.00000241,0.00000793,0.00000383,-0
 .00000647,0.00000308,-0.00000446,0.00000447,0.00003096,0.00000511,0.00
 000566,-0.00000229,0.00000395,-0.00000418,0.00000007,-0.00000111,-0.00
 000451,-0.00000600,-0.00000329,-0.00000341,0.00000676,-0.00000254,-0.0
 0000234,-0.00000127,-0.00000751,0.00000850,0.00001408,-0.00000561,0.00
 000529,-0.00000655,0.00000570,-0.00000181,0.00000083,-0.00003440,0.000
 00151,-0.00009955,0.00000295,0.00001320,0.00001798,0.00000591,-0.00000
 256,0.00000804,0.00000192,0.00000383,-0.00000623,-0.00000841,0.0000049
 4,-0.00000155,-0.00000757,-0.00000715,0.00000219,-0.00000548,0.0000022
 9,0.00000041,0.00000050,-0.00000092,0.00000654,0.00000184,-0.00000515,
 0.00000137,0.00000021,0.00000122,-0.00000452,-0.00000049,0.00000170,0.
 00000487,-0.00000066,-0.00000085,-0.00000289,0.00001076,0.00000166,-0.
 00000068,0.00000021,-0.00000293,0.00000316,-0.00000038,0.00000018,0.00
 000102,0.00001404,-0.00000488,-0.00000667,-0.00000827,-0.00000422,-0.0
 0000228,-0.00000664,0.00000207,-0.00000377,0.00000972,0.00000026,0.000
 00301,0.00000902,-0.00000983,-0.00000987,0.00000022,-0.00000119,-0.000
 00226,0.00001630,-0.00001303,0.00002817,-0.00000611,0.00001549,0.00000
 232,0.00000414,0.00000328,-0.00000854,-0.00000012,-0.00001810,-0.00002
 205,0.00000562,0.00000079,-0.00000157,0.00000154,0.00000181,0.00000506
 ,-0.00003160,0.00002121,0.00004434,0.00002108,-0.00001305,-0.00000838,
 -0.00000358,0.00000680,-0.00000322,-0.00001852,-0.00000768,0.00000724,
 0.00001303,0.00000472,-0.00001053,0.00000085,0.00000337,-0.00000397,-0
 .00000648,-0.00001719,0.00000612,0.00000071,0.00000310,-0.00000148,0.0
 0000522,0.00000242,0.00000628,-0.00000032,-0.00000274,-0.00000282,0.00
 000084,0.00000151,-0.00000348,-0.00000353,-0.00000016,0.00000121,0.000
 00677,0.00000847,-0.00000987,-0.00000835,0.00000710,-0.00000562,-0.000
 00713,-0.00000063,-0.00000503,0.00000163,0.00000094,0.00002130,0.00000
 170,-0.00000382,0.00000493,0.00000062,-0.00000140,0.00000016,0.0000013
 8,-0.00000141,-0.00000117\\\@
 The archive entry for this job was punched.


 WE MIGHT AS WELL ATTEMPT TO INTRODUCE A NEW PLANET 
 INTO THE SOLAR SYSTEM, OR TO ANNIHILATE ONE ALREADYIN EXISTENCE, 
 AS TO CREATE OR DESTROY A PARTICLE OF HYDROGEN.
 ALL THE CHANGES WE CAN PRODUCE CONSIST IN SEPARATING PARTICLES
 THAT ARE IN A STATE OF ... COMBINATION, AND JOINING 
 THOSE THAT WERE PREVIOUSLY AT A DISTANCE.

                                    -- JOHN DALTON, 1810
 Job cpu time:       7 days 10 hours 42 minutes 55.9 seconds.
 Elapsed time:       0 days  3 hours 53 minutes 53.6 seconds.
 File lengths (MBytes):  RWF=  14494 Int=      0 D2E=      0 Chk=    143 Scr=      2
 Normal termination of Gaussian 16 at Wed Feb 22 07:42:53 2023.
