 Entering Gaussian System, Link 0=g16
 Initial command:
 /home/chesagar/softwares/G16_AVX2//g16/l1.exe "/home/chesagar/scratch/Gau-21436.inp" -scrdir="/home/chesagar/scratch/"
 Entering Link 1 = /home/chesagar/softwares/G16_AVX2//g16/l1.exe PID=     21437.
  
 Copyright (c) 1988-2019, Gaussian, Inc.  All Rights Reserved.
  
 This is part of the Gaussian(R) 16 program.  It is based on
 the Gaussian(R) 09 system (copyright 2009, Gaussian, Inc.),
 the Gaussian(R) 03 system (copyright 2003, Gaussian, Inc.),
 the Gaussian(R) 98 system (copyright 1998, Gaussian, Inc.),
 the Gaussian(R) 94 system (copyright 1995, Gaussian, Inc.),
 the Gaussian 92(TM) system (copyright 1992, Gaussian, Inc.),
 the Gaussian 90(TM) system (copyright 1990, Gaussian, Inc.),
 the Gaussian 88(TM) system (copyright 1988, Gaussian, Inc.),
 the Gaussian 86(TM) system (copyright 1986, Carnegie Mellon
 University), and the Gaussian 82(TM) system (copyright 1983,
 Carnegie Mellon University). Gaussian is a federally registered
 trademark of Gaussian, Inc.
  
 This software contains proprietary and confidential information,
 including trade secrets, belonging to Gaussian, Inc.
  
 This software is provided under written license and may be
 used, copied, transmitted, or stored only in accord with that
 written license.
  
 The following legend is applicable only to US Government
 contracts under FAR:
  
                    RESTRICTED RIGHTS LEGEND
  
 Use, reproduction and disclosure by the US Government is
 subject to restrictions as set forth in subparagraphs (a)
 and (c) of the Commercial Computer Software - Restricted
 Rights clause in FAR 52.227-19.
  
 Gaussian, Inc.
 340 Quinnipiac St., Bldg. 40, Wallingford CT 06492
  
  
 ---------------------------------------------------------------
 Warning -- This program may not be used in any manner that
 competes with the business of Gaussian, Inc. or will provide
 assistance to any competitor of Gaussian, Inc.  The licensee
 of this program is prohibited from giving any competitor of
 Gaussian, Inc. access to this program.  By using this program,
 the user acknowledges that Gaussian, Inc. is engaged in the
 business of creating and licensing software in the field of
 computational chemistry and represents and warrants to the
 licensee that it is not a competitor of Gaussian, Inc. and that
 it will not use this program in any manner prohibited above.
 ---------------------------------------------------------------
  

 Cite this work as:
 Gaussian 16, Revision C.01,
 M. J. Frisch, G. W. Trucks, H. B. Schlegel, G. E. Scuseria, 
 M. A. Robb, J. R. Cheeseman, G. Scalmani, V. Barone, 
 G. A. Petersson, H. Nakatsuji, X. Li, M. Caricato, A. V. Marenich, 
 J. Bloino, B. G. Janesko, R. Gomperts, B. Mennucci, H. P. Hratchian, 
 J. V. Ortiz, A. F. Izmaylov, J. L. Sonnenberg, D. Williams-Young, 
 F. Ding, F. Lipparini, F. Egidi, J. Goings, B. Peng, A. Petrone, 
 T. Henderson, D. Ranasinghe, V. G. Zakrzewski, J. Gao, N. Rega, 
 G. Zheng, W. Liang, M. Hada, M. Ehara, K. Toyota, R. Fukuda, 
 J. Hasegawa, M. Ishida, T. Nakajima, Y. Honda, O. Kitao, H. Nakai, 
 T. Vreven, K. Throssell, J. A. Montgomery, Jr., J. E. Peralta, 
 F. Ogliaro, M. J. Bearpark, J. J. Heyd, E. N. Brothers, K. N. Kudin, 
 V. N. Staroverov, T. A. Keith, R. Kobayashi, J. Normand, 
 K. Raghavachari, A. P. Rendell, J. C. Burant, S. S. Iyengar, 
 J. Tomasi, M. Cossi, J. M. Millam, M. Klene, C. Adamo, R. Cammi, 
 J. W. Ochterski, R. L. Martin, K. Morokuma, O. Farkas, 
 J. B. Foresman, and D. J. Fox, Gaussian, Inc., Wallingford CT, 2019.
 
 ******************************************
 Gaussian 16:  ES64L-G16RevC.01  3-Jul-2019
                22-Feb-2023 
 ******************************************
 %nprocshared=46
 Will use up to   46 processors via shared memory.
 %chk=Mo19S44_H2S_i2_f.chk
 %mem=100GB
 ---------------------------------------------------------
 # opt freq b3lyp/gen nosymm pseudo=read scf=maxcycles=500
 ---------------------------------------------------------
 1/18=20,19=15,26=3,38=1/1,3;
 2/9=110,12=2,15=1,17=6,18=5,40=1/2;
 3/5=7,11=2,16=1,17=8,25=1,30=1,71=1,74=-5/1,2,3;
 4//1;
 5/5=2,7=500,38=5/2;
 6/7=2,8=2,9=2,10=2,28=1/1;
 7/30=1/1,2,3,16;
 1/18=20,19=15,26=3/3(2);
 2/9=110,15=1/2;
 99//99;
 2/9=110,15=1/2;
 3/5=7,6=1,11=2,16=1,17=8,25=1,30=1,71=1,74=-5,82=7/1,2,3;
 4/5=5,16=3,69=1/1;
 5/5=2,7=500,38=5/2;
 7/30=1/1,2,3,16;
 1/18=20,19=15,26=3/3(-5);
 2/9=110,15=1/2;
 6/7=2,8=2,9=2,10=2,19=2,28=1/1;
 99/9=1/99;
 -------------------
 Title Card Required
 -------------------
 Symbolic Z-matrix:
 Charge =  0 Multiplicity = 1
 42                    0.40147   1.28326   12.66328 
 16                    2.40498   2.2049    13.66581 
 16                   -0.6389    1.90127   14.88161 
 16                   -0.41375   0.96916   10.38282 
 16                    1.98884  -0.41522   11.96099 
 42                   -1.99448   2.70537   11.00655 
 16                   -2.7763    2.40372   8.72814 
 16                    0.0084    3.60223   12.0537 
 42                    1.02989   2.89243   9.93546 
 16                    0.22065   2.59392   7.63331 
 16                    2.60942   1.13354   9.3175 
 42                    3.41886   1.49846   11.56569 
 42                   -1.35876   4.31557   8.29777 
 16                    5.5806    2.44904   12.52314 
 16                    3.06407   3.80616   10.93887 
 16                   -2.30253   5.02766   10.41984 
 16                    1.2046    6.85928   6.47589 
 42                   -4.42378   4.22268   9.43915 
 16                   -5.83337   2.07089   9.62375 
 16                   -5.45493   4.76496   11.35894 
 42                    2.56774   0.00761   14.16871 
 16                    4.83668   0.20393   15.24015 
 16                    1.75773   0.42064   16.39797 
 42                    1.69203   4.47963   7.19434 
 16                    0.97642   4.30926   4.769 
 16                    0.68483   5.22605   9.28271 
 42                    4.0432    3.03115   8.84165 
 16                    3.18487   2.67442   6.59774 
 16                    3.72936   5.34838   8.19309 
 42                    4.63153   4.51291   6.09794 
 16                    6.86694   5.37287   7.02766 
 16                    4.4445    7.03348   5.56572 
 42                    2.60847   6.28787   4.59557 
 16                    3.95694   4.34568   3.89026 
 16                   -1.43306   6.90206   3.82698 
 42                   -0.78415   5.76666   5.48579 
 16                   -2.29115   4.08761   5.95994 
 16                   -1.70358   6.69831   7.549 
 42                   -3.68543   5.96694   6.53144 
 16                   -5.6692    4.64573   7.31311 
 16                   -4.49489   7.14311   4.97749 
 42                   -5.22209   2.37562   11.72361 
 16                   -3.25473   3.36987   13.09512 
 16                   -3.45272   0.71624   11.57927 
 42                   -2.58394   1.20318   13.84878 
 16                   -1.14196  -0.64273   13.16221 
 16                   -3.99011   0.52812   15.27354 
 42                    0.03984  -0.70679   15.34082 
 16                    1.33491  -2.29436   14.49684 
 16                   -1.24173  -1.5564    16.79571 
 42                    5.80037   0.20871   12.94726 
 16                    5.16015  -0.25899   11.15138 
 16                    8.4758    1.08779   10.73707 
 42                    6.48596   1.67691   10.35091 
 16                    5.61702   1.1018    8.20339 
 16                    6.21026   3.9854    9.81019 
 42                    7.03926   2.99062   7.7821 
 16                    9.10891   2.62342   7.60367 
 16                    2.24189   7.52804   2.92346 
 16                    7.79154  -0.39846   13.36787 
 16                   -6.80483   1.69262   12.94607 
 16                   -5.22488   6.38173   8.43695 
 16                    4.53041  -1.56743   14.13043 
 16                    6.19114   2.5772    5.45347 
 1                     7.53096   5.27393   5.85399 
 1                     7.06778   3.34514   4.77 
 

 GradGradGradGradGradGradGradGradGradGradGradGradGradGradGradGradGradGrad
 Berny optimization.
 Initialization pass.
                           ----------------------------
                           !    Initial Parameters    !
                           ! (Angstroms and Degrees)  !
 --------------------------                            --------------------------
 ! Name  Definition              Value          Derivative Info.                !
 --------------------------------------------------------------------------------
 ! R1    R(1,2)                  2.4225         estimate D2E/DX2                !
 ! R2    R(1,3)                  2.5269         estimate D2E/DX2                !
 ! R3    R(1,4)                  2.4421         estimate D2E/DX2                !
 ! R4    R(1,5)                  2.4285         estimate D2E/DX2                !
 ! R5    R(1,8)                  2.4298         estimate D2E/DX2                !
 ! R6    R(1,21)                 2.9302         estimate D2E/DX2                !
 ! R7    R(1,46)                 2.518          estimate D2E/DX2                !
 ! R8    R(2,12)                 2.4367         estimate D2E/DX2                !
 ! R9    R(2,21)                 2.26           estimate D2E/DX2                !
 ! R10   R(3,45)                 2.3102         estimate D2E/DX2                !
 ! R11   R(3,48)                 2.7338         estimate D2E/DX2                !
 ! R12   R(4,6)                  2.4294         estimate D2E/DX2                !
 ! R13   R(4,9)                  2.4461         estimate D2E/DX2                !
 ! R14   R(5,12)                 2.4214         estimate D2E/DX2                !
 ! R15   R(5,21)                 2.3212         estimate D2E/DX2                !
 ! R16   R(6,7)                  2.4276         estimate D2E/DX2                !
 ! R17   R(6,8)                  2.4315         estimate D2E/DX2                !
 ! R18   R(6,16)                 2.415          estimate D2E/DX2                !
 ! R19   R(6,43)                 2.5282         estimate D2E/DX2                !
 ! R20   R(6,44)                 2.532          estimate D2E/DX2                !
 ! R21   R(7,13)                 2.4186         estimate D2E/DX2                !
 ! R22   R(7,18)                 2.5551         estimate D2E/DX2                !
 ! R23   R(8,9)                  2.4565         estimate D2E/DX2                !
 ! R24   R(9,10)                 2.4584         estimate D2E/DX2                !
 ! R25   R(9,11)                 2.4435         estimate D2E/DX2                !
 ! R26   R(9,15)                 2.4453         estimate D2E/DX2                !
 ! R27   R(9,26)                 2.4476         estimate D2E/DX2                !
 ! R28   R(10,13)                2.429          estimate D2E/DX2                !
 ! R29   R(10,24)                2.4318         estimate D2E/DX2                !
 ! R30   R(11,12)                2.4172         estimate D2E/DX2                !
 ! R31   R(11,27)                2.4255         estimate D2E/DX2                !
 ! R32   R(12,14)                2.5482         estimate D2E/DX2                !
 ! R33   R(12,15)                2.4175         estimate D2E/DX2                !
 ! R34   R(12,21)                3.1181         estimate D2E/DX2                !
 ! R35   R(12,51)                3.0404         estimate D2E/DX2                !
 ! R36   R(12,52)                2.5085         estimate D2E/DX2                !
 ! R37   R(13,16)                2.4292         estimate D2E/DX2                !
 ! R38   R(13,26)                2.4444         estimate D2E/DX2                !
 ! R39   R(13,37)                2.5272         estimate D2E/DX2                !
 ! R40   R(13,38)                2.5213         estimate D2E/DX2                !
 ! R41   R(14,51)                2.2907         estimate D2E/DX2                !
 ! R42   R(14,54)                2.4768         estimate D2E/DX2                !
 ! R43   R(15,27)                2.4408         estimate D2E/DX2                !
 ! R44   R(16,18)                2.4717         estimate D2E/DX2                !
 ! R45   R(17,24)                2.5331         estimate D2E/DX2                !
 ! R46   R(17,33)                2.4152         estimate D2E/DX2                !
 ! R47   R(17,36)                2.4757         estimate D2E/DX2                !
 ! R48   R(18,19)                2.579          estimate D2E/DX2                !
 ! R49   R(18,20)                2.2457         estimate D2E/DX2                !
 ! R50   R(18,40)                2.5            estimate D2E/DX2                !
 ! R51   R(18,42)                3.0443         estimate D2E/DX2                !
 ! R52   R(18,62)                2.5115         estimate D2E/DX2                !
 ! R53   R(19,42)                2.2082         estimate D2E/DX2                !
 ! R54   R(20,42)                2.4282         estimate D2E/DX2                !
 ! R55   R(21,22)                2.5169         estimate D2E/DX2                !
 ! R56   R(21,23)                2.4076         estimate D2E/DX2                !
 ! R57   R(21,48)                2.8765         estimate D2E/DX2                !
 ! R58   R(21,49)                2.6318         estimate D2E/DX2                !
 ! R59   R(21,63)                2.5168         estimate D2E/DX2                !
 ! R60   R(22,51)                2.4872         estimate D2E/DX2                !
 ! R61   R(22,63)                2.1126         estimate D2E/DX2                !
 ! R62   R(23,48)                2.3108         estimate D2E/DX2                !
 ! R63   R(24,25)                2.5344         estimate D2E/DX2                !
 ! R64   R(24,26)                2.4357         estimate D2E/DX2                !
 ! R65   R(24,28)                2.4173         estimate D2E/DX2                !
 ! R66   R(24,29)                2.4296         estimate D2E/DX2                !
 ! R67   R(25,33)                2.5707         estimate D2E/DX2                !
 ! R68   R(25,36)                2.3953         estimate D2E/DX2                !
 ! R69   R(27,28)                2.4288         estimate D2E/DX2                !
 ! R70   R(27,29)                2.4267         estimate D2E/DX2                !
 ! R71   R(27,55)                2.5703         estimate D2E/DX2                !
 ! R72   R(27,56)                2.5583         estimate D2E/DX2                !
 ! R73   R(28,30)                2.3922         estimate D2E/DX2                !
 ! R74   R(29,30)                2.4293         estimate D2E/DX2                !
 ! R75   R(30,31)                2.5692         estimate D2E/DX2                !
 ! R76   R(30,32)                2.5829         estimate D2E/DX2                !
 ! R77   R(30,33)                3.0823         estimate D2E/DX2                !
 ! R78   R(30,34)                2.3145         estimate D2E/DX2                !
 ! R79   R(30,64)                2.568          estimate D2E/DX2                !
 ! R80   R(31,57)                2.5048         estimate D2E/DX2                !
 ! R81   R(31,65)                1.3521         estimate D2E/DX2                !
 ! R82   R(32,33)                2.2064         estimate D2E/DX2                !
 ! R83   R(33,34)                2.4674         estimate D2E/DX2                !
 ! R84   R(33,59)                2.1138         estimate D2E/DX2                !
 ! R85   R(35,36)                2.1123         estimate D2E/DX2                !
 ! R86   R(36,37)                2.3054         estimate D2E/DX2                !
 ! R87   R(36,38)                2.4434         estimate D2E/DX2                !
 ! R88   R(36,39)                3.0905         estimate D2E/DX2                !
 ! R89   R(37,39)                2.4088         estimate D2E/DX2                !
 ! R90   R(38,39)                2.3448         estimate D2E/DX2                !
 ! R91   R(39,40)                2.5084         estimate D2E/DX2                !
 ! R92   R(39,41)                2.1103         estimate D2E/DX2                !
 ! R93   R(39,62)                2.4845         estimate D2E/DX2                !
 ! R94   R(40,62)                2.1152         estimate D2E/DX2                !
 ! R95   R(42,43)                2.5962         estimate D2E/DX2                !
 ! R96   R(42,44)                2.43           estimate D2E/DX2                !
 ! R97   R(42,61)                2.1133         estimate D2E/DX2                !
 ! R98   R(43,45)                2.3901         estimate D2E/DX2                !
 ! R99   R(44,45)                2.4784         estimate D2E/DX2                !
 ! R100  R(45,46)                2.4409         estimate D2E/DX2                !
 ! R101  R(45,47)                2.1126         estimate D2E/DX2                !
 ! R102  R(46,48)                2.4793         estimate D2E/DX2                !
 ! R103  R(48,49)                2.2158         estimate D2E/DX2                !
 ! R104  R(48,50)                2.1168         estimate D2E/DX2                !
 ! R105  R(51,52)                1.9631         estimate D2E/DX2                !
 ! R106  R(51,54)                3.0605         estimate D2E/DX2                !
 ! R107  R(51,60)                2.1237         estimate D2E/DX2                !
 ! R108  R(51,63)                2.4834         estimate D2E/DX2                !
 ! R109  R(52,54)                2.4792         estimate D2E/DX2                !
 ! R110  R(53,54)                2.1108         estimate D2E/DX2                !
 ! R111  R(54,55)                2.387          estimate D2E/DX2                !
 ! R112  R(54,56)                2.3869         estimate D2E/DX2                !
 ! R113  R(54,57)                2.9378         estimate D2E/DX2                !
 ! R114  R(55,57)                2.4016         estimate D2E/DX2                !
 ! R115  R(56,57)                2.4062         estimate D2E/DX2                !
 ! R116  R(57,58)                2.1095         estimate D2E/DX2                !
 ! R117  R(57,64)                2.5125         estimate D2E/DX2                !
 ! R118  R(64,66)                1.3511         estimate D2E/DX2                !
 ! A1    A(2,1,3)               83.3479         estimate D2E/DX2                !
 ! A2    A(2,1,4)              135.3546         estimate D2E/DX2                !
 ! A3    A(2,1,5)               81.0934         estimate D2E/DX2                !
 ! A4    A(2,1,8)               82.7912         estimate D2E/DX2                !
 ! A5    A(2,1,46)             135.7196         estimate D2E/DX2                !
 ! A6    A(3,1,4)              135.5446         estimate D2E/DX2                !
 ! A7    A(3,1,5)              133.9501         estimate D2E/DX2                !
 ! A8    A(3,1,8)               85.424          estimate D2E/DX2                !
 ! A9    A(3,1,21)              87.698          estimate D2E/DX2                !
 ! A10   A(3,1,46)              76.1585         estimate D2E/DX2                !
 ! A11   A(4,1,5)               81.8479         estimate D2E/DX2                !
 ! A12   A(4,1,8)               80.472          estimate D2E/DX2                !
 ! A13   A(4,1,21)             132.1096         estimate D2E/DX2                !
 ! A14   A(4,1,46)              83.2252         estimate D2E/DX2                !
 ! A15   A(5,1,8)              134.4818         estimate D2E/DX2                !
 ! A16   A(5,1,46)              85.5839         estimate D2E/DX2                !
 ! A17   A(8,1,21)             131.6039         estimate D2E/DX2                !
 ! A18   A(8,1,46)             132.8868         estimate D2E/DX2                !
 ! A19   A(21,1,46)             91.0524         estimate D2E/DX2                !
 ! A20   A(1,2,12)              82.9432         estimate D2E/DX2                !
 ! A21   A(1,3,45)              83.123          estimate D2E/DX2                !
 ! A22   A(1,3,48)              79.159          estimate D2E/DX2                !
 ! A23   A(45,3,48)             89.7623         estimate D2E/DX2                !
 ! A24   A(1,4,6)               83.4276         estimate D2E/DX2                !
 ! A25   A(1,4,9)               82.6828         estimate D2E/DX2                !
 ! A26   A(6,4,9)               82.4757         estimate D2E/DX2                !
 ! A27   A(1,5,12)              83.1365         estimate D2E/DX2                !
 ! A28   A(4,6,7)               83.0959         estimate D2E/DX2                !
 ! A29   A(4,6,8)               80.6892         estimate D2E/DX2                !
 ! A30   A(4,6,16)             135.0601         estimate D2E/DX2                !
 ! A31   A(4,6,43)             136.4074         estimate D2E/DX2                !
 ! A32   A(4,6,44)              82.6098         estimate D2E/DX2                !
 ! A33   A(7,6,8)              135.6668         estimate D2E/DX2                !
 ! A34   A(7,6,16)              81.3959         estimate D2E/DX2                !
 ! A35   A(7,6,43)             130.3493         estimate D2E/DX2                !
 ! A36   A(7,6,44)              85.9401         estimate D2E/DX2                !
 ! A37   A(8,6,16)              81.663          estimate D2E/DX2                !
 ! A38   A(8,6,43)              87.5864         estimate D2E/DX2                !
 ! A39   A(8,6,44)             131.816          estimate D2E/DX2                !
 ! A40   A(16,6,43)             83.3597         estimate D2E/DX2                !
 ! A41   A(16,6,44)            137.4702         estimate D2E/DX2                !
 ! A42   A(43,6,44)             74.4868         estimate D2E/DX2                !
 ! A43   A(6,7,13)              83.1096         estimate D2E/DX2                !
 ! A44   A(6,7,18)              81.8382         estimate D2E/DX2                !
 ! A45   A(13,7,18)             82.2234         estimate D2E/DX2                !
 ! A46   A(1,8,6)               83.6425         estimate D2E/DX2                !
 ! A47   A(1,8,9)               82.7204         estimate D2E/DX2                !
 ! A48   A(6,8,9)               82.2177         estimate D2E/DX2                !
 ! A49   A(4,9,8)               79.8669         estimate D2E/DX2                !
 ! A50   A(4,9,10)              83.1956         estimate D2E/DX2                !
 ! A51   A(4,9,11)              82.0554         estimate D2E/DX2                !
 ! A52   A(4,9,15)             135.2118         estimate D2E/DX2                !
 ! A53   A(4,9,26)             135.661          estimate D2E/DX2                !
 ! A54   A(8,9,10)             134.8862         estimate D2E/DX2                !
 ! A55   A(8,9,11)             134.0187         estimate D2E/DX2                !
 ! A56   A(8,9,15)              83.345          estimate D2E/DX2                !
 ! A57   A(8,9,26)              84.0219         estimate D2E/DX2                !
 ! A58   A(10,9,11)             83.6014         estimate D2E/DX2                !
 ! A59   A(10,9,15)            134.7043         estimate D2E/DX2                !
 ! A60   A(10,9,26)             79.6085         estimate D2E/DX2                !
 ! A61   A(11,9,15)             80.5034         estimate D2E/DX2                !
 ! A62   A(11,9,26)            135.234          estimate D2E/DX2                !
 ! A63   A(15,9,26)             82.5561         estimate D2E/DX2                !
 ! A64   A(9,10,13)             82.635          estimate D2E/DX2                !
 ! A65   A(9,10,24)             82.8605         estimate D2E/DX2                !
 ! A66   A(13,10,24)            83.8681         estimate D2E/DX2                !
 ! A67   A(9,11,12)             82.6791         estimate D2E/DX2                !
 ! A68   A(9,11,27)             82.4479         estimate D2E/DX2                !
 ! A69   A(12,11,27)            82.3228         estimate D2E/DX2                !
 ! A70   A(2,12,5)              80.9494         estimate D2E/DX2                !
 ! A71   A(2,12,11)            134.9145         estimate D2E/DX2                !
 ! A72   A(2,12,14)             85.469          estimate D2E/DX2                !
 ! A73   A(2,12,15)             83.4342         estimate D2E/DX2                !
 ! A74   A(2,12,51)             93.2828         estimate D2E/DX2                !
 ! A75   A(2,12,52)            129.3682         estimate D2E/DX2                !
 ! A76   A(5,12,11)             80.4889         estimate D2E/DX2                !
 ! A77   A(5,12,14)            137.2625         estimate D2E/DX2                !
 ! A78   A(5,12,15)            135.2407         estimate D2E/DX2                !
 ! A79   A(5,12,51)             93.0467         estimate D2E/DX2                !
 ! A80   A(5,12,52)             83.2936         estimate D2E/DX2                !
 ! A81   A(11,12,14)           133.6194         estimate D2E/DX2                !
 ! A82   A(11,12,15)            81.5939         estimate D2E/DX2                !
 ! A83   A(11,12,21)           127.796          estimate D2E/DX2                !
 ! A84   A(11,12,51)           128.3821         estimate D2E/DX2                !
 ! A85   A(11,12,52)            88.4567         estimate D2E/DX2                !
 ! A86   A(14,12,15)            82.2892         estimate D2E/DX2                !
 ! A87   A(14,12,21)            95.5236         estimate D2E/DX2                !
 ! A88   A(14,12,52)            74.6049         estimate D2E/DX2                !
 ! A89   A(15,12,21)           129.2571         estimate D2E/DX2                !
 ! A90   A(15,12,51)           129.6222         estimate D2E/DX2                !
 ! A91   A(15,12,52)           136.7058         estimate D2E/DX2                !
 ! A92   A(21,12,51)            68.3856         estimate D2E/DX2                !
 ! A93   A(21,12,52)            89.5633         estimate D2E/DX2                !
 ! A94   A(7,13,10)             82.5014         estimate D2E/DX2                !
 ! A95   A(7,13,16)             81.2902         estimate D2E/DX2                !
 ! A96   A(7,13,26)            135.4556         estimate D2E/DX2                !
 ! A97   A(7,13,37)             82.9388         estimate D2E/DX2                !
 ! A98   A(7,13,38)            136.0304         estimate D2E/DX2                !
 ! A99   A(10,13,16)           134.3758         estimate D2E/DX2                !
 ! A100  A(10,13,26)            80.2486         estimate D2E/DX2                !
 ! A101  A(10,13,37)            85.5786         estimate D2E/DX2                !
 ! A102  A(10,13,38)           132.65           estimate D2E/DX2                !
 ! A103  A(16,13,26)            82.1622         estimate D2E/DX2                !
 ! A104  A(16,13,37)           133.7263         estimate D2E/DX2                !
 ! A105  A(16,13,38)            85.944          estimate D2E/DX2                !
 ! A106  A(26,13,37)           135.6243         estimate D2E/DX2                !
 ! A107  A(26,13,38)            83.2232         estimate D2E/DX2                !
 ! A108  A(37,13,38)            76.1171         estimate D2E/DX2                !
 ! A109  A(12,14,54)            82.1994         estimate D2E/DX2                !
 ! A110  A(9,15,12)             82.6333         estimate D2E/DX2                !
 ! A111  A(9,15,27)             82.0957         estimate D2E/DX2                !
 ! A112  A(12,15,27)            81.9991         estimate D2E/DX2                !
 ! A113  A(6,16,13)             83.153          estimate D2E/DX2                !
 ! A114  A(6,16,18)             83.8395         estimate D2E/DX2                !
 ! A115  A(13,16,18)            83.7627         estimate D2E/DX2                !
 ! A116  A(24,17,33)            83.4947         estimate D2E/DX2                !
 ! A117  A(24,17,36)            81.5702         estimate D2E/DX2                !
 ! A118  A(33,17,36)            92.9326         estimate D2E/DX2                !
 ! A119  A(7,18,16)             77.8129         estimate D2E/DX2                !
 ! A120  A(7,18,19)             77.1946         estimate D2E/DX2                !
 ! A121  A(7,18,20)            134.9006         estimate D2E/DX2                !
 ! A122  A(7,18,40)            101.8315         estimate D2E/DX2                !
 ! A123  A(7,18,42)             86.9028         estimate D2E/DX2                !
 ! A124  A(7,18,62)            134.9612         estimate D2E/DX2                !
 ! A125  A(16,18,19)           135.4299         estimate D2E/DX2                !
 ! A126  A(16,18,20)            88.6382         estimate D2E/DX2                !
 ! A127  A(16,18,40)           135.221          estimate D2E/DX2                !
 ! A128  A(16,18,42)            97.1755         estimate D2E/DX2                !
 ! A129  A(16,18,62)            98.7485         estimate D2E/DX2                !
 ! A130  A(19,18,20)            83.6452         estimate D2E/DX2                !
 ! A131  A(19,18,40)            85.9734         estimate D2E/DX2                !
 ! A132  A(19,18,62)           124.8539         estimate D2E/DX2                !
 ! A133  A(20,18,40)           117.2195         estimate D2E/DX2                !
 ! A134  A(20,18,62)            89.2598         estimate D2E/DX2                !
 ! A135  A(40,18,42)           127.6034         estimate D2E/DX2                !
 ! A136  A(42,18,62)           137.509          estimate D2E/DX2                !
 ! A137  A(1,21,12)             64.1997         estimate D2E/DX2                !
 ! A138  A(1,21,22)            148.3433         estimate D2E/DX2                !
 ! A139  A(1,21,23)             98.76           estimate D2E/DX2                !
 ! A140  A(1,21,48)             70.5964         estimate D2E/DX2                !
 ! A141  A(1,21,49)             95.6543         estimate D2E/DX2                !
 ! A142  A(1,21,63)            147.2604         estimate D2E/DX2                !
 ! A143  A(2,21,5)              86.9907         estimate D2E/DX2                !
 ! A144  A(2,21,22)             94.808          estimate D2E/DX2                !
 ! A145  A(2,21,23)             90.8604         estimate D2E/DX2                !
 ! A146  A(2,21,48)            105.5956         estimate D2E/DX2                !
 ! A147  A(2,21,49)            147.6084         estimate D2E/DX2                !
 ! A148  A(2,21,63)            131.3939         estimate D2E/DX2                !
 ! A149  A(5,21,22)            130.0859         estimate D2E/DX2                !
 ! A150  A(5,21,23)            145.8959         estimate D2E/DX2                !
 ! A151  A(5,21,48)             97.0733         estimate D2E/DX2                !
 ! A152  A(5,21,49)             80.934          estimate D2E/DX2                !
 ! A153  A(5,21,63)             93.7856         estimate D2E/DX2                !
 ! A154  A(12,21,22)            94.1297         estimate D2E/DX2                !
 ! A155  A(12,21,23)           141.5167         estimate D2E/DX2                !
 ! A156  A(12,21,48)           134.3289         estimate D2E/DX2                !
 ! A157  A(12,21,49)           130.5519         estimate D2E/DX2                !
 ! A158  A(12,21,63)            94.224          estimate D2E/DX2                !
 ! A159  A(22,21,23)            84.0156         estimate D2E/DX2                !
 ! A160  A(22,21,48)           129.6533         estimate D2E/DX2                !
 ! A161  A(22,21,49)           115.9403         estimate D2E/DX2                !
 ! A162  A(23,21,49)            82.9352         estimate D2E/DX2                !
 ! A163  A(23,21,63)           112.5701         estimate D2E/DX2                !
 ! A164  A(48,21,63)           122.4176         estimate D2E/DX2                !
 ! A165  A(49,21,63)            79.6197         estimate D2E/DX2                !
 ! A166  A(21,22,51)            87.5352         estimate D2E/DX2                !
 ! A167  A(10,24,17)           131.5478         estimate D2E/DX2                !
 ! A168  A(10,24,25)            87.1212         estimate D2E/DX2                !
 ! A169  A(10,24,26)            80.367          estimate D2E/DX2                !
 ! A170  A(10,24,28)            80.7423         estimate D2E/DX2                !
 ! A171  A(10,24,29)           135.271          estimate D2E/DX2                !
 ! A172  A(17,24,25)            74.7757         estimate D2E/DX2                !
 ! A173  A(17,24,26)            82.8611         estimate D2E/DX2                !
 ! A174  A(17,24,28)           138.6245         estimate D2E/DX2                !
 ! A175  A(17,24,29)            86.6772         estimate D2E/DX2                !
 ! A176  A(25,24,26)           136.4124         estimate D2E/DX2                !
 ! A177  A(25,24,28)            83.5689         estimate D2E/DX2                !
 ! A178  A(25,24,29)           130.8576         estimate D2E/DX2                !
 ! A179  A(26,24,28)           134.0928         estimate D2E/DX2                !
 ! A180  A(26,24,29)            83.3803         estimate D2E/DX2                !
 ! A181  A(28,24,29)            81.4092         estimate D2E/DX2                !
 ! A182  A(24,25,33)            80.4196         estimate D2E/DX2                !
 ! A183  A(24,25,36)            83.1232         estimate D2E/DX2                !
 ! A184  A(33,25,36)            91.0612         estimate D2E/DX2                !
 ! A185  A(9,26,13)             82.5417         estimate D2E/DX2                !
 ! A186  A(9,26,24)             83.0035         estimate D2E/DX2                !
 ! A187  A(13,26,24)            83.4594         estimate D2E/DX2                !
 ! A188  A(11,27,15)            80.9508         estimate D2E/DX2                !
 ! A189  A(11,27,28)            81.8042         estimate D2E/DX2                !
 ! A190  A(11,27,29)           136.3075         estimate D2E/DX2                !
 ! A191  A(11,27,55)            79.8289         estimate D2E/DX2                !
 ! A192  A(11,27,56)           135.9123         estimate D2E/DX2                !
 ! A193  A(15,27,28)           134.3214         estimate D2E/DX2                !
 ! A194  A(15,27,29)            82.7936         estimate D2E/DX2                !
 ! A195  A(15,27,55)           134.2122         estimate D2E/DX2                !
 ! A196  A(15,27,56)            84.0345         estimate D2E/DX2                !
 ! A197  A(28,27,29)            81.2356         estimate D2E/DX2                !
 ! A198  A(28,27,55)            82.9189         estimate D2E/DX2                !
 ! A199  A(28,27,56)           134.7413         estimate D2E/DX2                !
 ! A200  A(29,27,55)           136.8524         estimate D2E/DX2                !
 ! A201  A(29,27,56)            81.6368         estimate D2E/DX2                !
 ! A202  A(55,27,56)            81.682          estimate D2E/DX2                !
 ! A203  A(24,28,27)            83.1395         estimate D2E/DX2                !
 ! A204  A(24,28,30)            81.4368         estimate D2E/DX2                !
 ! A205  A(27,28,30)            82.3243         estimate D2E/DX2                !
 ! A206  A(24,29,27)            82.9273         estimate D2E/DX2                !
 ! A207  A(24,29,30)            80.4393         estimate D2E/DX2                !
 ! A208  A(27,29,30)            81.6087         estimate D2E/DX2                !
 ! A209  A(28,30,29)            81.9254         estimate D2E/DX2                !
 ! A210  A(28,30,31)           135.056          estimate D2E/DX2                !
 ! A211  A(28,30,32)           138.5247         estimate D2E/DX2                !
 ! A212  A(28,30,33)            98.4812         estimate D2E/DX2                !
 ! A213  A(28,30,34)            88.1375         estimate D2E/DX2                !
 ! A214  A(28,30,64)            80.8164         estimate D2E/DX2                !
 ! A215  A(29,30,31)            84.0255         estimate D2E/DX2                !
 ! A216  A(29,30,32)            79.351          estimate D2E/DX2                !
 ! A217  A(29,30,33)            88.7728         estimate D2E/DX2                !
 ! A218  A(29,30,34)           137.6676         estimate D2E/DX2                !
 ! A219  A(29,30,64)           134.5243         estimate D2E/DX2                !
 ! A220  A(31,30,32)            79.1014         estimate D2E/DX2                !
 ! A221  A(31,30,33)           123.6904         estimate D2E/DX2                !
 ! A222  A(31,30,34)           128.5313         estimate D2E/DX2                !
 ! A223  A(31,30,64)            79.3215         estimate D2E/DX2                !
 ! A224  A(32,30,34)            81.5389         estimate D2E/DX2                !
 ! A225  A(32,30,64)           136.7059         estimate D2E/DX2                !
 ! A226  A(33,30,64)           135.2646         estimate D2E/DX2                !
 ! A227  A(34,30,64)            83.2909         estimate D2E/DX2                !
 ! A228  A(30,31,57)            81.4029         estimate D2E/DX2                !
 ! A229  A(30,31,65)            95.0886         estimate D2E/DX2                !
 ! A230  A(57,31,65)            99.0949         estimate D2E/DX2                !
 ! A231  A(17,33,25)            76.1454         estimate D2E/DX2                !
 ! A232  A(17,33,30)            97.9484         estimate D2E/DX2                !
 ! A233  A(17,33,32)            93.5214         estimate D2E/DX2                !
 ! A234  A(17,33,34)           136.5907         estimate D2E/DX2                !
 ! A235  A(17,33,59)           112.1013         estimate D2E/DX2                !
 ! A236  A(25,33,30)            86.5936         estimate D2E/DX2                !
 ! A237  A(25,33,32)           139.3523         estimate D2E/DX2                !
 ! A238  A(25,33,34)            76.1371         estimate D2E/DX2                !
 ! A239  A(25,33,59)           113.2554         estimate D2E/DX2                !
 ! A240  A(30,33,59)           146.85           estimate D2E/DX2                !
 ! A241  A(32,33,34)            86.3831         estimate D2E/DX2                !
 ! A242  A(32,33,59)           107.0895         estimate D2E/DX2                !
 ! A243  A(34,33,59)           109.2974         estimate D2E/DX2                !
 ! A244  A(17,36,25)            78.3325         estimate D2E/DX2                !
 ! A245  A(17,36,35)           108.8817         estimate D2E/DX2                !
 ! A246  A(17,36,37)           139.8416         estimate D2E/DX2                !
 ! A247  A(17,36,38)            78.2465         estimate D2E/DX2                !
 ! A248  A(17,36,39)           126.172          estimate D2E/DX2                !
 ! A249  A(25,36,35)           108.5326         estimate D2E/DX2                !
 ! A250  A(25,36,37)            95.6743         estimate D2E/DX2                !
 ! A251  A(25,36,38)           139.5756         estimate D2E/DX2                !
 ! A252  A(25,36,39)           146.1711         estimate D2E/DX2                !
 ! A253  A(35,36,37)           110.62           estimate D2E/DX2                !
 ! A254  A(35,36,38)           110.0334         estimate D2E/DX2                !
 ! A255  A(35,36,39)            86.7021         estimate D2E/DX2                !
 ! A256  A(37,36,38)            81.84           estimate D2E/DX2                !
 ! A257  A(13,37,36)            83.3037         estimate D2E/DX2                !
 ! A258  A(13,37,39)            85.6243         estimate D2E/DX2                !
 ! A259  A(13,38,36)            80.7333         estimate D2E/DX2                !
 ! A260  A(13,38,39)            87.117          estimate D2E/DX2                !
 ! A261  A(36,39,40)           144.464          estimate D2E/DX2                !
 ! A262  A(36,39,41)            98.4571         estimate D2E/DX2                !
 ! A263  A(36,39,62)           148.4296         estimate D2E/DX2                !
 ! A264  A(37,39,38)            81.7831         estimate D2E/DX2                !
 ! A265  A(37,39,40)            96.9361         estimate D2E/DX2                !
 ! A266  A(37,39,41)           118.8259         estimate D2E/DX2                !
 ! A267  A(37,39,62)           132.133          estimate D2E/DX2                !
 ! A268  A(38,39,40)           134.2266         estimate D2E/DX2                !
 ! A269  A(38,39,41)           118.029          estimate D2E/DX2                !
 ! A270  A(38,39,62)            97.9785         estimate D2E/DX2                !
 ! A271  A(40,39,41)           102.6904         estimate D2E/DX2                !
 ! A272  A(41,39,62)           103.5348         estimate D2E/DX2                !
 ! A273  A(18,40,39)            87.7169         estimate D2E/DX2                !
 ! A274  A(18,42,43)            88.0144         estimate D2E/DX2                !
 ! A275  A(18,42,44)           100.3            estimate D2E/DX2                !
 ! A276  A(18,42,61)           145.7483         estimate D2E/DX2                !
 ! A277  A(19,42,20)            88.0761         estimate D2E/DX2                !
 ! A278  A(19,42,43)           139.9073         estimate D2E/DX2                !
 ! A279  A(19,42,44)            92.9145         estimate D2E/DX2                !
 ! A280  A(19,42,61)           107.3472         estimate D2E/DX2                !
 ! A281  A(20,42,43)            77.0068         estimate D2E/DX2                !
 ! A282  A(20,42,44)           137.1248         estimate D2E/DX2                !
 ! A283  A(20,42,61)           109.4557         estimate D2E/DX2                !
 ! A284  A(43,42,44)            74.9967         estimate D2E/DX2                !
 ! A285  A(43,42,61)           112.6892         estimate D2E/DX2                !
 ! A286  A(44,42,61)           111.0384         estimate D2E/DX2                !
 ! A287  A(6,43,42)             80.8318         estimate D2E/DX2                !
 ! A288  A(6,43,45)             83.242          estimate D2E/DX2                !
 ! A289  A(42,43,45)            91.8387         estimate D2E/DX2                !
 ! A290  A(6,44,42)             84.0494         estimate D2E/DX2                !
 ! A291  A(6,44,45)             81.4252         estimate D2E/DX2                !
 ! A292  A(42,44,45)            93.8234         estimate D2E/DX2                !
 ! A293  A(3,45,43)             95.9311         estimate D2E/DX2                !
 ! A294  A(3,45,44)            139.8069         estimate D2E/DX2                !
 ! A295  A(3,45,46)             81.7725         estimate D2E/DX2                !
 ! A296  A(3,45,47)            110.8207         estimate D2E/DX2                !
 ! A297  A(43,45,44)            77.9351         estimate D2E/DX2                !
 ! A298  A(43,45,46)           139.6992         estimate D2E/DX2                !
 ! A299  A(43,45,47)           108.393          estimate D2E/DX2                !
 ! A300  A(44,45,46)            78.5179         estimate D2E/DX2                !
 ! A301  A(44,45,47)           108.7515         estimate D2E/DX2                !
 ! A302  A(46,45,47)           109.9536         estimate D2E/DX2                !
 ! A303  A(1,46,45)             80.7585         estimate D2E/DX2                !
 ! A304  A(1,46,48)             84.3588         estimate D2E/DX2                !
 ! A305  A(45,46,48)            93.0937         estimate D2E/DX2                !
 ! A306  A(3,48,21)             84.9979         estimate D2E/DX2                !
 ! A307  A(3,48,23)             78.2269         estimate D2E/DX2                !
 ! A308  A(3,48,46)             73.1064         estimate D2E/DX2                !
 ! A309  A(3,48,49)            139.8759         estimate D2E/DX2                !
 ! A310  A(3,48,50)            110.3673         estimate D2E/DX2                !
 ! A311  A(21,48,46)            93.1197         estimate D2E/DX2                !
 ! A312  A(21,48,50)           155.752          estimate D2E/DX2                !
 ! A313  A(23,48,46)           138.0513         estimate D2E/DX2                !
 ! A314  A(23,48,49)            95.1239         estimate D2E/DX2                !
 ! A315  A(23,48,50)           109.3584         estimate D2E/DX2                !
 ! A316  A(46,48,49)            87.8459         estimate D2E/DX2                !
 ! A317  A(46,48,50)           109.0094         estimate D2E/DX2                !
 ! A318  A(49,48,50)           109.1516         estimate D2E/DX2                !
 ! A319  A(12,51,22)            96.6744         estimate D2E/DX2                !
 ! A320  A(12,51,54)            65.5732         estimate D2E/DX2                !
 ! A321  A(12,51,60)           161.0274         estimate D2E/DX2                !
 ! A322  A(12,51,63)            96.8534         estimate D2E/DX2                !
 ! A323  A(14,51,22)            97.7812         estimate D2E/DX2                !
 ! A324  A(14,51,52)            91.8533         estimate D2E/DX2                !
 ! A325  A(14,51,60)           113.9679         estimate D2E/DX2                !
 ! A326  A(14,51,63)           137.6145         estimate D2E/DX2                !
 ! A327  A(22,51,52)           135.7687         estimate D2E/DX2                !
 ! A328  A(22,51,54)           150.434          estimate D2E/DX2                !
 ! A329  A(22,51,60)           100.3782         estimate D2E/DX2                !
 ! A330  A(52,51,60)           114.7611         estimate D2E/DX2                !
 ! A331  A(52,51,63)            95.663          estimate D2E/DX2                !
 ! A332  A(54,51,60)            95.4592         estimate D2E/DX2                !
 ! A333  A(54,51,63)           149.5225         estimate D2E/DX2                !
 ! A334  A(60,51,63)           100.4062         estimate D2E/DX2                !
 ! A335  A(12,52,54)            82.9619         estimate D2E/DX2                !
 ! A336  A(14,54,52)            76.3949         estimate D2E/DX2                !
 ! A337  A(14,54,53)           105.7324         estimate D2E/DX2                !
 ! A338  A(14,54,55)           136.9785         estimate D2E/DX2                !
 ! A339  A(14,54,56)            81.6602         estimate D2E/DX2                !
 ! A340  A(14,54,57)           134.1323         estimate D2E/DX2                !
 ! A341  A(51,54,53)            85.5314         estimate D2E/DX2                !
 ! A342  A(51,54,55)           124.4791         estimate D2E/DX2                !
 ! A343  A(51,54,56)           129.0694         estimate D2E/DX2                !
 ! A344  A(52,54,53)           103.1278         estimate D2E/DX2                !
 ! A345  A(52,54,55)            84.7025         estimate D2E/DX2                !
 ! A346  A(52,54,56)           140.0476         estimate D2E/DX2                !
 ! A347  A(52,54,57)           137.0736         estimate D2E/DX2                !
 ! A348  A(53,54,55)           116.1366         estimate D2E/DX2                !
 ! A349  A(53,54,56)           114.8498         estimate D2E/DX2                !
 ! A350  A(53,54,57)            96.1552         estimate D2E/DX2                !
 ! A351  A(55,54,56)            89.2645         estimate D2E/DX2                !
 ! A352  A(27,55,54)            79.551          estimate D2E/DX2                !
 ! A353  A(27,55,57)            79.3868         estimate D2E/DX2                !
 ! A354  A(27,56,54)            79.7966         estimate D2E/DX2                !
 ! A355  A(27,56,57)            79.5449         estimate D2E/DX2                !
 ! A356  A(31,57,54)           132.5088         estimate D2E/DX2                !
 ! A357  A(31,57,55)           139.4715         estimate D2E/DX2                !
 ! A358  A(31,57,56)            80.6172         estimate D2E/DX2                !
 ! A359  A(31,57,58)           101.9802         estimate D2E/DX2                !
 ! A360  A(31,57,64)            81.6114         estimate D2E/DX2                !
 ! A361  A(54,57,58)           100.4222         estimate D2E/DX2                !
 ! A362  A(54,57,64)           132.3179         estimate D2E/DX2                !
 ! A363  A(55,57,56)            88.4682         estimate D2E/DX2                !
 ! A364  A(55,57,58)           117.3188         estimate D2E/DX2                !
 ! A365  A(55,57,64)            80.4021         estimate D2E/DX2                !
 ! A366  A(56,57,58)           118.7678         estimate D2E/DX2                !
 ! A367  A(56,57,64)           137.1291         estimate D2E/DX2                !
 ! A368  A(58,57,64)           102.9524         estimate D2E/DX2                !
 ! A369  A(18,62,39)            87.9876         estimate D2E/DX2                !
 ! A370  A(21,63,51)            87.6189         estimate D2E/DX2                !
 ! A371  A(30,64,57)            81.2795         estimate D2E/DX2                !
 ! A372  A(30,64,66)            95.3117         estimate D2E/DX2                !
 ! A373  A(57,64,66)            98.992          estimate D2E/DX2                !
 ! A374  L(51,54,57,53,-1)     181.6866         estimate D2E/DX2                !
 ! A375  L(51,54,57,53,-2)     177.3346         estimate D2E/DX2                !
 ! D1    D(3,1,2,12)           177.2434         estimate D2E/DX2                !
 ! D2    D(4,1,2,12)           -27.9909         estimate D2E/DX2                !
 ! D3    D(5,1,2,12)            40.7295         estimate D2E/DX2                !
 ! D4    D(8,1,2,12)           -96.553          estimate D2E/DX2                !
 ! D5    D(46,1,2,12)          114.9263         estimate D2E/DX2                !
 ! D6    D(2,1,3,45)           175.0226         estimate D2E/DX2                !
 ! D7    D(2,1,3,48)           -93.8978         estimate D2E/DX2                !
 ! D8    D(4,1,3,45)            20.348          estimate D2E/DX2                !
 ! D9    D(4,1,3,48)           111.4277         estimate D2E/DX2                !
 ! D10   D(5,1,3,45)          -114.1817         estimate D2E/DX2                !
 ! D11   D(5,1,3,48)           -23.1021         estimate D2E/DX2                !
 ! D12   D(8,1,3,45)            91.765          estimate D2E/DX2                !
 ! D13   D(8,1,3,48)          -177.1554         estimate D2E/DX2                !
 ! D14   D(21,1,3,45)         -136.1792         estimate D2E/DX2                !
 ! D15   D(21,1,3,48)          -45.0995         estimate D2E/DX2                !
 ! D16   D(46,1,3,45)          -44.5268         estimate D2E/DX2                !
 ! D17   D(46,1,3,48)           46.5529         estimate D2E/DX2                !
 ! D18   D(2,1,4,6)           -110.2318         estimate D2E/DX2                !
 ! D19   D(2,1,4,9)            -27.0143         estimate D2E/DX2                !
 ! D20   D(3,1,4,6)             32.5664         estimate D2E/DX2                !
 ! D21   D(3,1,4,9)            115.7839         estimate D2E/DX2                !
 ! D22   D(5,1,4,6)           -178.6638         estimate D2E/DX2                !
 ! D23   D(5,1,4,9)            -95.4463         estimate D2E/DX2                !
 ! D24   D(8,1,4,6)            -40.7805         estimate D2E/DX2                !
 ! D25   D(8,1,4,9)             42.437          estimate D2E/DX2                !
 ! D26   D(21,1,4,6)          -179.8777         estimate D2E/DX2                !
 ! D27   D(21,1,4,9)           -96.6602         estimate D2E/DX2                !
 ! D28   D(46,1,4,6)            94.8515         estimate D2E/DX2                !
 ! D29   D(46,1,4,9)           178.069          estimate D2E/DX2                !
 ! D30   D(2,1,5,12)           -41.0206         estimate D2E/DX2                !
 ! D31   D(3,1,5,12)          -112.7237         estimate D2E/DX2                !
 ! D32   D(4,1,5,12)            97.5658         estimate D2E/DX2                !
 ! D33   D(8,1,5,12)            29.5934         estimate D2E/DX2                !
 ! D34   D(46,1,5,12)         -178.661          estimate D2E/DX2                !
 ! D35   D(2,1,8,6)            179.1685         estimate D2E/DX2                !
 ! D36   D(2,1,8,9)             96.2407         estimate D2E/DX2                !
 ! D37   D(3,1,8,6)            -96.9748         estimate D2E/DX2                !
 ! D38   D(3,1,8,9)           -179.9025         estimate D2E/DX2                !
 ! D39   D(4,1,8,6)             40.7165         estimate D2E/DX2                !
 ! D40   D(4,1,8,9)            -42.2112         estimate D2E/DX2                !
 ! D41   D(5,1,8,6)            109.2251         estimate D2E/DX2                !
 ! D42   D(5,1,8,9)             26.2973         estimate D2E/DX2                !
 ! D43   D(21,1,8,6)          -179.7965         estimate D2E/DX2                !
 ! D44   D(21,1,8,9)            97.2758         estimate D2E/DX2                !
 ! D45   D(46,1,8,6)           -30.6717         estimate D2E/DX2                !
 ! D46   D(46,1,8,9)          -113.5994         estimate D2E/DX2                !
 ! D47   D(3,1,21,12)         -142.2003         estimate D2E/DX2                !
 ! D48   D(3,1,21,22)          -91.372          estimate D2E/DX2                !
 ! D49   D(3,1,21,23)            1.4322         estimate D2E/DX2                !
 ! D50   D(3,1,21,48)           44.5056         estimate D2E/DX2                !
 ! D51   D(3,1,21,49)           85.1287         estimate D2E/DX2                !
 ! D52   D(3,1,21,63)          164.7121         estimate D2E/DX2                !
 ! D53   D(4,1,21,12)           59.8875         estimate D2E/DX2                !
 ! D54   D(4,1,21,22)          110.7158         estimate D2E/DX2                !
 ! D55   D(4,1,21,23)         -156.48           estimate D2E/DX2                !
 ! D56   D(4,1,21,48)         -113.4066         estimate D2E/DX2                !
 ! D57   D(4,1,21,49)          -72.7835         estimate D2E/DX2                !
 ! D58   D(4,1,21,63)            6.7999         estimate D2E/DX2                !
 ! D59   D(8,1,21,12)          -60.3914         estimate D2E/DX2                !
 ! D60   D(8,1,21,22)           -9.5631         estimate D2E/DX2                !
 ! D61   D(8,1,21,23)           83.2411         estimate D2E/DX2                !
 ! D62   D(8,1,21,48)          126.3145         estimate D2E/DX2                !
 ! D63   D(8,1,21,49)          166.9376         estimate D2E/DX2                !
 ! D64   D(8,1,21,63)         -113.479          estimate D2E/DX2                !
 ! D65   D(46,1,21,12)         141.6986         estimate D2E/DX2                !
 ! D66   D(46,1,21,22)        -167.4731         estimate D2E/DX2                !
 ! D67   D(46,1,21,23)         -74.6689         estimate D2E/DX2                !
 ! D68   D(46,1,21,48)         -31.5955         estimate D2E/DX2                !
 ! D69   D(46,1,21,49)           9.0276         estimate D2E/DX2                !
 ! D70   D(46,1,21,63)          88.611          estimate D2E/DX2                !
 ! D71   D(2,1,46,45)          106.8229         estimate D2E/DX2                !
 ! D72   D(2,1,46,48)           12.7506         estimate D2E/DX2                !
 ! D73   D(3,1,46,45)           41.8814         estimate D2E/DX2                !
 ! D74   D(3,1,46,48)          -52.1909         estimate D2E/DX2                !
 ! D75   D(4,1,46,45)          -98.4351         estimate D2E/DX2                !
 ! D76   D(4,1,46,48)          167.4926         estimate D2E/DX2                !
 ! D77   D(5,1,46,45)          179.2685         estimate D2E/DX2                !
 ! D78   D(5,1,46,48)           85.1962         estimate D2E/DX2                !
 ! D79   D(8,1,46,45)          -28.1808         estimate D2E/DX2                !
 ! D80   D(8,1,46,48)         -122.2532         estimate D2E/DX2                !
 ! D81   D(21,1,46,45)         129.2506         estimate D2E/DX2                !
 ! D82   D(21,1,46,48)          35.1782         estimate D2E/DX2                !
 ! D83   D(1,2,12,5)           -40.8938         estimate D2E/DX2                !
 ! D84   D(1,2,12,11)           25.8345         estimate D2E/DX2                !
 ! D85   D(1,2,12,14)          179.7578         estimate D2E/DX2                !
 ! D86   D(1,2,12,15)           97.0172         estimate D2E/DX2                !
 ! D87   D(1,2,12,51)         -133.4599         estimate D2E/DX2                !
 ! D88   D(1,2,12,52)         -114.4151         estimate D2E/DX2                !
 ! D89   D(1,3,45,43)          -94.2289         estimate D2E/DX2                !
 ! D90   D(1,3,45,44)          -15.9213         estimate D2E/DX2                !
 ! D91   D(1,3,45,46)           45.2103         estimate D2E/DX2                !
 ! D92   D(1,3,45,47)          153.5055         estimate D2E/DX2                !
 ! D93   D(48,3,45,43)        -173.3375         estimate D2E/DX2                !
 ! D94   D(48,3,45,44)         -95.0298         estimate D2E/DX2                !
 ! D95   D(48,3,45,46)         -33.8983         estimate D2E/DX2                !
 ! D96   D(48,3,45,47)          74.3969         estimate D2E/DX2                !
 ! D97   D(1,3,48,21)           46.3632         estimate D2E/DX2                !
 ! D98   D(1,3,48,23)          100.5768         estimate D2E/DX2                !
 ! D99   D(1,3,48,46)          -48.4367         estimate D2E/DX2                !
 ! D100  D(1,3,48,49)           16.6464         estimate D2E/DX2                !
 ! D101  D(1,3,48,50)         -152.9359         estimate D2E/DX2                !
 ! D102  D(45,3,48,21)         129.4064         estimate D2E/DX2                !
 ! D103  D(45,3,48,23)        -176.38           estimate D2E/DX2                !
 ! D104  D(45,3,48,46)          34.6065         estimate D2E/DX2                !
 ! D105  D(45,3,48,49)          99.6896         estimate D2E/DX2                !
 ! D106  D(45,3,48,50)         -69.8927         estimate D2E/DX2                !
 ! D107  D(1,4,6,7)            179.3021         estimate D2E/DX2                !
 ! D108  D(1,4,6,8)             40.7132         estimate D2E/DX2                !
 ! D109  D(1,4,6,16)           108.8554         estimate D2E/DX2                !
 ! D110  D(1,4,6,43)           -35.7483         estimate D2E/DX2                !
 ! D111  D(1,4,6,44)           -93.9201         estimate D2E/DX2                !
 ! D112  D(9,4,6,7)             95.8539         estimate D2E/DX2                !
 ! D113  D(9,4,6,8)            -42.7351         estimate D2E/DX2                !
 ! D114  D(9,4,6,16)            25.4072         estimate D2E/DX2                !
 ! D115  D(9,4,6,43)          -119.1966         estimate D2E/DX2                !
 ! D116  D(9,4,6,44)          -177.3683         estimate D2E/DX2                !
 ! D117  D(1,4,9,8)            -41.9644         estimate D2E/DX2                !
 ! D118  D(1,4,9,10)          -179.9771         estimate D2E/DX2                !
 ! D119  D(1,4,9,11)            95.5703         estimate D2E/DX2                !
 ! D120  D(1,4,9,15)            27.7219         estimate D2E/DX2                !
 ! D121  D(1,4,9,26)          -112.436          estimate D2E/DX2                !
 ! D122  D(6,4,9,8)             42.3287         estimate D2E/DX2                !
 ! D123  D(6,4,9,10)           -95.6841         estimate D2E/DX2                !
 ! D124  D(6,4,9,11)           179.8634         estimate D2E/DX2                !
 ! D125  D(6,4,9,15)           112.015          estimate D2E/DX2                !
 ! D126  D(6,4,9,26)           -28.1429         estimate D2E/DX2                !
 ! D127  D(1,5,12,2)            40.7503         estimate D2E/DX2                !
 ! D128  D(1,5,12,11)          -97.9792         estimate D2E/DX2                !
 ! D129  D(1,5,12,14)          113.8763         estimate D2E/DX2                !
 ! D130  D(1,5,12,15)          -30.2797         estimate D2E/DX2                !
 ! D131  D(1,5,12,51)          133.5929         estimate D2E/DX2                !
 ! D132  D(1,5,12,52)          172.4675         estimate D2E/DX2                !
 ! D133  D(4,6,7,13)           -97.1961         estimate D2E/DX2                !
 ! D134  D(4,6,7,18)           179.7167         estimate D2E/DX2                !
 ! D135  D(8,6,7,13)           -28.1209         estimate D2E/DX2                !
 ! D136  D(8,6,7,18)          -111.2081         estimate D2E/DX2                !
 ! D137  D(16,6,7,13)           40.489          estimate D2E/DX2                !
 ! D138  D(16,6,7,18)          -42.5982         estimate D2E/DX2                !
 ! D139  D(43,6,7,13)          114.1093         estimate D2E/DX2                !
 ! D140  D(43,6,7,18)           31.0222         estimate D2E/DX2                !
 ! D141  D(44,6,7,13)          179.7708         estimate D2E/DX2                !
 ! D142  D(44,6,7,18)           96.6837         estimate D2E/DX2                !
 ! D143  D(4,6,8,1)            -40.9424         estimate D2E/DX2                !
 ! D144  D(4,6,8,9)             42.5431         estimate D2E/DX2                !
 ! D145  D(7,6,8,1)           -110.9364         estimate D2E/DX2                !
 ! D146  D(7,6,8,9)            -27.4508         estimate D2E/DX2                !
 ! D147  D(16,6,8,1)          -179.445          estimate D2E/DX2                !
 ! D148  D(16,6,8,9)           -95.9594         estimate D2E/DX2                !
 ! D149  D(43,6,8,1)            96.9163         estimate D2E/DX2                !
 ! D150  D(43,6,8,9)          -179.5981         estimate D2E/DX2                !
 ! D151  D(44,6,8,1)            30.3004         estimate D2E/DX2                !
 ! D152  D(44,6,8,9)           113.786          estimate D2E/DX2                !
 ! D153  D(4,6,16,13)           30.8383         estimate D2E/DX2                !
 ! D154  D(4,6,16,18)          115.266          estimate D2E/DX2                !
 ! D155  D(7,6,16,13)          -40.2724         estimate D2E/DX2                !
 ! D156  D(7,6,16,18)           44.1553         estimate D2E/DX2                !
 ! D157  D(8,6,16,13)           98.6072         estimate D2E/DX2                !
 ! D158  D(8,6,16,18)         -176.9651         estimate D2E/DX2                !
 ! D159  D(43,6,16,13)        -172.8706         estimate D2E/DX2                !
 ! D160  D(43,6,16,18)         -88.4429         estimate D2E/DX2                !
 ! D161  D(44,6,16,13)        -114.5558         estimate D2E/DX2                !
 ! D162  D(44,6,16,18)         -30.1281         estimate D2E/DX2                !
 ! D163  D(4,6,43,42)         -107.0105         estimate D2E/DX2                !
 ! D164  D(4,6,43,45)          -14.0382         estimate D2E/DX2                !
 ! D165  D(7,6,43,42)           24.5636         estimate D2E/DX2                !
 ! D166  D(7,6,43,45)          117.536          estimate D2E/DX2                !
 ! D167  D(8,6,43,42)          179.1972         estimate D2E/DX2                !
 ! D168  D(8,6,43,45)          -87.8305         estimate D2E/DX2                !
 ! D169  D(16,6,43,42)          97.3143         estimate D2E/DX2                !
 ! D170  D(16,6,43,45)        -169.7134         estimate D2E/DX2                !
 ! D171  D(44,6,43,42)         -46.0328         estimate D2E/DX2                !
 ! D172  D(44,6,43,45)          46.9395         estimate D2E/DX2                !
 ! D173  D(4,6,44,42)         -167.6944         estimate D2E/DX2                !
 ! D174  D(4,6,44,45)           97.5148         estimate D2E/DX2                !
 ! D175  D(7,6,44,42)          -84.1431         estimate D2E/DX2                !
 ! D176  D(7,6,44,45)         -178.9339         estimate D2E/DX2                !
 ! D177  D(8,6,44,42)          121.874          estimate D2E/DX2                !
 ! D178  D(8,6,44,45)           27.0833         estimate D2E/DX2                !
 ! D179  D(16,6,44,42)         -11.5558         estimate D2E/DX2                !
 ! D180  D(16,6,44,45)        -106.3466         estimate D2E/DX2                !
 ! D181  D(43,6,44,42)          49.7501         estimate D2E/DX2                !
 ! D182  D(43,6,44,45)         -45.0407         estimate D2E/DX2                !
 ! D183  D(6,7,13,10)           96.9876         estimate D2E/DX2                !
 ! D184  D(6,7,13,16)          -40.2173         estimate D2E/DX2                !
 ! D185  D(6,7,13,26)           29.1529         estimate D2E/DX2                !
 ! D186  D(6,7,13,37)         -176.5697         estimate D2E/DX2                !
 ! D187  D(6,7,13,38)         -115.036          estimate D2E/DX2                !
 ! D188  D(18,7,13,10)         179.6437         estimate D2E/DX2                !
 ! D189  D(18,7,13,16)          42.4387         estimate D2E/DX2                !
 ! D190  D(18,7,13,26)         111.809          estimate D2E/DX2                !
 ! D191  D(18,7,13,37)         -93.9136         estimate D2E/DX2                !
 ! D192  D(18,7,13,38)         -32.38           estimate D2E/DX2                !
 ! D193  D(6,7,18,16)           41.9859         estimate D2E/DX2                !
 ! D194  D(6,7,18,19)         -100.8108         estimate D2E/DX2                !
 ! D195  D(6,7,18,20)          -33.5633         estimate D2E/DX2                !
 ! D196  D(6,7,18,40)          176.1499         estimate D2E/DX2                !
 ! D197  D(6,7,18,42)          -56.0424         estimate D2E/DX2                !
 ! D198  D(6,7,18,62)          132.2282         estimate D2E/DX2                !
 ! D199  D(13,7,18,16)         -42.1174         estimate D2E/DX2                !
 ! D200  D(13,7,18,19)         175.0859         estimate D2E/DX2                !
 ! D201  D(13,7,18,20)        -117.6666         estimate D2E/DX2                !
 ! D202  D(13,7,18,40)          92.0466         estimate D2E/DX2                !
 ! D203  D(13,7,18,42)        -140.1456         estimate D2E/DX2                !
 ! D204  D(13,7,18,62)          48.1249         estimate D2E/DX2                !
 ! D205  D(1,8,9,4)             42.2218         estimate D2E/DX2                !
 ! D206  D(1,8,9,10)           111.8635         estimate D2E/DX2                !
 ! D207  D(1,8,9,11)           -26.1889         estimate D2E/DX2                !
 ! D208  D(1,8,9,15)           -96.0841         estimate D2E/DX2                !
 ! D209  D(1,8,9,26)          -179.2537         estimate D2E/DX2                !
 ! D210  D(6,8,9,4)            -42.3148         estimate D2E/DX2                !
 ! D211  D(6,8,9,10)            27.3269         estimate D2E/DX2                !
 ! D212  D(6,8,9,11)          -110.7254         estimate D2E/DX2                !
 ! D213  D(6,8,9,15)           179.3794         estimate D2E/DX2                !
 ! D214  D(6,8,9,26)            96.2097         estimate D2E/DX2                !
 ! D215  D(4,9,10,13)           96.3153         estimate D2E/DX2                !
 ! D216  D(4,9,10,24)         -178.984          estimate D2E/DX2                !
 ! D217  D(8,9,10,13)           27.9648         estimate D2E/DX2                !
 ! D218  D(8,9,10,24)          112.6655         estimate D2E/DX2                !
 ! D219  D(11,9,10,13)         179.0371         estimate D2E/DX2                !
 ! D220  D(11,9,10,24)         -96.2622         estimate D2E/DX2                !
 ! D221  D(15,9,10,13)        -111.1192         estimate D2E/DX2                !
 ! D222  D(15,9,10,24)         -26.4185         estimate D2E/DX2                !
 ! D223  D(26,9,10,13)         -42.6388         estimate D2E/DX2                !
 ! D224  D(26,9,10,24)          42.0619         estimate D2E/DX2                !
 ! D225  D(4,9,11,12)          -97.5239         estimate D2E/DX2                !
 ! D226  D(4,9,11,27)          179.301          estimate D2E/DX2                !
 ! D227  D(8,9,11,12)          -29.9742         estimate D2E/DX2                !
 ! D228  D(8,9,11,27)         -113.1493         estimate D2E/DX2                !
 ! D229  D(10,9,11,12)         178.4876         estimate D2E/DX2                !
 ! D230  D(10,9,11,27)          95.3125         estimate D2E/DX2                !
 ! D231  D(15,9,11,12)          41.0575         estimate D2E/DX2                !
 ! D232  D(15,9,11,27)         -42.1176         estimate D2E/DX2                !
 ! D233  D(26,9,11,12)         110.2528         estimate D2E/DX2                !
 ! D234  D(26,9,11,27)          27.0777         estimate D2E/DX2                !
 ! D235  D(4,9,15,12)           27.3861         estimate D2E/DX2                !
 ! D236  D(4,9,15,27)          110.2779         estimate D2E/DX2                !
 ! D237  D(8,9,15,12)           95.7339         estimate D2E/DX2                !
 ! D238  D(8,9,15,27)          178.6257         estimate D2E/DX2                !
 ! D239  D(10,9,15,12)        -112.1181         estimate D2E/DX2                !
 ! D240  D(10,9,15,27)         -29.2263         estimate D2E/DX2                !
 ! D241  D(11,9,15,12)         -41.0559         estimate D2E/DX2                !
 ! D242  D(11,9,15,27)          41.8359         estimate D2E/DX2                !
 ! D243  D(26,9,15,12)        -179.4586         estimate D2E/DX2                !
 ! D244  D(26,9,15,27)         -96.5668         estimate D2E/DX2                !
 ! D245  D(4,9,26,13)          -26.5814         estimate D2E/DX2                !
 ! D246  D(4,9,26,24)         -110.8609         estimate D2E/DX2                !
 ! D247  D(8,9,26,13)          -95.4646         estimate D2E/DX2                !
 ! D248  D(8,9,26,24)         -179.7441         estimate D2E/DX2                !
 ! D249  D(10,9,26,13)          42.3176         estimate D2E/DX2                !
 ! D250  D(10,9,26,24)         -41.962          estimate D2E/DX2                !
 ! D251  D(11,9,26,13)         112.0882         estimate D2E/DX2                !
 ! D252  D(11,9,26,24)          27.8087         estimate D2E/DX2                !
 ! D253  D(15,9,26,13)        -179.5047         estimate D2E/DX2                !
 ! D254  D(15,9,26,24)          96.2158         estimate D2E/DX2                !
 ! D255  D(9,10,13,7)          -96.1622         estimate D2E/DX2                !
 ! D256  D(9,10,13,16)         -26.19           estimate D2E/DX2                !
 ! D257  D(9,10,13,26)          42.603          estimate D2E/DX2                !
 ! D258  D(9,10,13,37)        -179.6058         estimate D2E/DX2                !
 ! D259  D(9,10,13,38)         113.8737         estimate D2E/DX2                !
 ! D260  D(24,10,13,7)        -179.7227         estimate D2E/DX2                !
 ! D261  D(24,10,13,16)       -109.7505         estimate D2E/DX2                !
 ! D262  D(24,10,13,26)        -40.9575         estimate D2E/DX2                !
 ! D263  D(24,10,13,37)         96.8337         estimate D2E/DX2                !
 ! D264  D(24,10,13,38)         30.3133         estimate D2E/DX2                !
 ! D265  D(9,10,24,17)        -113.6002         estimate D2E/DX2                !
 ! D266  D(9,10,24,25)         179.7211         estimate D2E/DX2                !
 ! D267  D(9,10,24,26)         -42.1933         estimate D2E/DX2                !
 ! D268  D(9,10,24,28)          95.7732         estimate D2E/DX2                !
 ! D269  D(9,10,24,29)          28.0825         estimate D2E/DX2                !
 ! D270  D(13,10,24,17)        -30.2891         estimate D2E/DX2                !
 ! D271  D(13,10,24,25)        -96.9678         estimate D2E/DX2                !
 ! D272  D(13,10,24,26)         41.1178         estimate D2E/DX2                !
 ! D273  D(13,10,24,28)        179.0844         estimate D2E/DX2                !
 ! D274  D(13,10,24,29)        111.3937         estimate D2E/DX2                !
 ! D275  D(9,11,12,2)           30.425          estimate D2E/DX2                !
 ! D276  D(9,11,12,5)           97.329          estimate D2E/DX2                !
 ! D277  D(9,11,12,14)        -112.3245         estimate D2E/DX2                !
 ! D278  D(9,11,12,15)         -41.4824         estimate D2E/DX2                !
 ! D279  D(9,11,12,21)          92.5369         estimate D2E/DX2                !
 ! D280  D(9,11,12,51)        -176.338          estimate D2E/DX2                !
 ! D281  D(9,11,12,52)        -179.2134         estimate D2E/DX2                !
 ! D282  D(27,11,12,2)         113.7413         estimate D2E/DX2                !
 ! D283  D(27,11,12,5)        -179.3547         estimate D2E/DX2                !
 ! D284  D(27,11,12,14)        -29.0083         estimate D2E/DX2                !
 ! D285  D(27,11,12,15)         41.8339         estimate D2E/DX2                !
 ! D286  D(27,11,12,21)        175.8532         estimate D2E/DX2                !
 ! D287  D(27,11,12,51)        -93.0217         estimate D2E/DX2                !
 ! D288  D(27,11,12,52)        -95.8971         estimate D2E/DX2                !
 ! D289  D(9,11,27,15)          42.1468         estimate D2E/DX2                !
 ! D290  D(9,11,27,28)         -95.3913         estimate D2E/DX2                !
 ! D291  D(9,11,27,29)         -27.3297         estimate D2E/DX2                !
 ! D292  D(9,11,27,55)        -179.6121         estimate D2E/DX2                !
 ! D293  D(9,11,27,56)         113.7451         estimate D2E/DX2                !
 ! D294  D(12,11,27,15)        -41.4322         estimate D2E/DX2                !
 ! D295  D(12,11,27,28)       -178.9704         estimate D2E/DX2                !
 ! D296  D(12,11,27,29)       -110.9087         estimate D2E/DX2                !
 ! D297  D(12,11,27,55)         96.8089         estimate D2E/DX2                !
 ! D298  D(12,11,27,56)         30.1661         estimate D2E/DX2                !
 ! D299  D(2,12,14,54)         179.8523         estimate D2E/DX2                !
 ! D300  D(5,12,14,54)         108.4119         estimate D2E/DX2                !
 ! D301  D(11,12,14,54)        -25.6149         estimate D2E/DX2                !
 ! D302  D(15,12,14,54)        -96.1759         estimate D2E/DX2                !
 ! D303  D(21,12,14,54)        134.8874         estimate D2E/DX2                !
 ! D304  D(52,12,14,54)         46.8685         estimate D2E/DX2                !
 ! D305  D(2,12,15,9)          -95.8955         estimate D2E/DX2                !
 ! D306  D(2,12,15,27)        -178.8964         estimate D2E/DX2                !
 ! D307  D(5,12,15,9)          -25.8303         estimate D2E/DX2                !
 ! D308  D(5,12,15,27)        -108.8312         estimate D2E/DX2                !
 ! D309  D(11,12,15,9)          41.4488         estimate D2E/DX2                !
 ! D310  D(11,12,15,27)        -41.5521         estimate D2E/DX2                !
 ! D311  D(14,12,15,9)         177.812          estimate D2E/DX2                !
 ! D312  D(14,12,15,27)         94.8111         estimate D2E/DX2                !
 ! D313  D(21,12,15,9)         -91.3405         estimate D2E/DX2                !
 ! D314  D(21,12,15,27)       -174.3413         estimate D2E/DX2                !
 ! D315  D(51,12,15,9)         175.2767         estimate D2E/DX2                !
 ! D316  D(51,12,15,27)         92.2758         estimate D2E/DX2                !
 ! D317  D(52,12,15,9)         120.1135         estimate D2E/DX2                !
 ! D318  D(52,12,15,27)         37.1127         estimate D2E/DX2                !
 ! D319  D(11,12,21,1)         -56.4729         estimate D2E/DX2                !
 ! D320  D(11,12,21,22)        147.6023         estimate D2E/DX2                !
 ! D321  D(11,12,21,23)       -126.8226         estimate D2E/DX2                !
 ! D322  D(11,12,21,48)        -47.616          estimate D2E/DX2                !
 ! D323  D(11,12,21,49)         17.8858         estimate D2E/DX2                !
 ! D324  D(11,12,21,63)         97.8311         estimate D2E/DX2                !
 ! D325  D(14,12,21,1)         141.3323         estimate D2E/DX2                !
 ! D326  D(14,12,21,22)        -14.5925         estimate D2E/DX2                !
 ! D327  D(14,12,21,23)         70.9826         estimate D2E/DX2                !
 ! D328  D(14,12,21,48)        150.1892         estimate D2E/DX2                !
 ! D329  D(14,12,21,49)       -144.309          estimate D2E/DX2                !
 ! D330  D(14,12,21,63)        -64.3636         estimate D2E/DX2                !
 ! D331  D(15,12,21,1)          56.7869         estimate D2E/DX2                !
 ! D332  D(15,12,21,22)        -99.1379         estimate D2E/DX2                !
 ! D333  D(15,12,21,23)        -13.5627         estimate D2E/DX2                !
 ! D334  D(15,12,21,48)         65.6439         estimate D2E/DX2                !
 ! D335  D(15,12,21,49)        131.1456         estimate D2E/DX2                !
 ! D336  D(15,12,21,63)       -148.909          estimate D2E/DX2                !
 ! D337  D(51,12,21,1)        -179.0131         estimate D2E/DX2                !
 ! D338  D(51,12,21,22)         25.0621         estimate D2E/DX2                !
 ! D339  D(51,12,21,23)        110.6373         estimate D2E/DX2                !
 ! D340  D(51,12,21,48)       -170.1561         estimate D2E/DX2                !
 ! D341  D(51,12,21,49)       -104.6544         estimate D2E/DX2                !
 ! D342  D(51,12,21,63)        -24.709          estimate D2E/DX2                !
 ! D343  D(52,12,21,1)        -144.1808         estimate D2E/DX2                !
 ! D344  D(52,12,21,22)         59.8945         estimate D2E/DX2                !
 ! D345  D(52,12,21,23)        145.4696         estimate D2E/DX2                !
 ! D346  D(52,12,21,48)       -135.3238         estimate D2E/DX2                !
 ! D347  D(52,12,21,49)        -69.822          estimate D2E/DX2                !
 ! D348  D(52,12,21,63)         10.1233         estimate D2E/DX2                !
 ! D349  D(2,12,51,22)          14.0659         estimate D2E/DX2                !
 ! D350  D(2,12,51,54)        -141.2557         estimate D2E/DX2                !
 ! D351  D(2,12,51,60)        -139.864          estimate D2E/DX2                !
 ! D352  D(2,12,51,63)          64.7463         estimate D2E/DX2                !
 ! D353  D(5,12,51,22)         -67.0326         estimate D2E/DX2                !
 ! D354  D(5,12,51,54)         137.6458         estimate D2E/DX2                !
 ! D355  D(5,12,51,60)         139.0375         estimate D2E/DX2                !
 ! D356  D(5,12,51,63)         -16.3522         estimate D2E/DX2                !
 ! D357  D(11,12,51,22)       -147.3068         estimate D2E/DX2                !
 ! D358  D(11,12,51,54)         57.3715         estimate D2E/DX2                !
 ! D359  D(11,12,51,60)         58.7633         estimate D2E/DX2                !
 ! D360  D(11,12,51,63)        -96.6265         estimate D2E/DX2                !
 ! D361  D(15,12,51,22)         98.2576         estimate D2E/DX2                !
 ! D362  D(15,12,51,54)        -57.0641         estimate D2E/DX2                !
 ! D363  D(15,12,51,60)        -55.6723         estimate D2E/DX2                !
 ! D364  D(15,12,51,63)        148.9379         estimate D2E/DX2                !
 ! D365  D(21,12,51,22)        -25.4967         estimate D2E/DX2                !
 ! D366  D(21,12,51,54)        179.1816         estimate D2E/DX2                !
 ! D367  D(21,12,51,60)       -179.4266         estimate D2E/DX2                !
 ! D368  D(21,12,51,63)         25.1836         estimate D2E/DX2                !
 ! D369  D(2,12,52,54)        -117.3193         estimate D2E/DX2                !
 ! D370  D(5,12,52,54)         170.22           estimate D2E/DX2                !
 ! D371  D(11,12,52,54)         89.6167         estimate D2E/DX2                !
 ! D372  D(14,12,52,54)        -46.7041         estimate D2E/DX2                !
 ! D373  D(15,12,52,54)         13.6128         estimate D2E/DX2                !
 ! D374  D(21,12,52,54)       -142.555          estimate D2E/DX2                !
 ! D375  D(7,13,16,6)           40.4668         estimate D2E/DX2                !
 ! D376  D(7,13,16,18)         -44.0471         estimate D2E/DX2                !
 ! D377  D(10,13,16,6)         -29.9848         estimate D2E/DX2                !
 ! D378  D(10,13,16,18)       -114.4986         estimate D2E/DX2                !
[...]
 2372,-0.00016544,0.00011718,-0.00009047,0.00011375,-0.00029866,0.00002
 068,0.00003454,-0.00003112,0.00015800,-0.00005103,0.00016487,0.0001102
 8,0.00040921,0.00024812,0.00000431,-0.00000771,0.00001473,0.00022002,0
 .00006050,0.00007441,-0.00000776,0.00000502,0.00002698,-0.00000237,0.0
 0000228,-0.00002106,0.00000567,-0.00000171,-0.00001616,0.00000587,-0.0
 0000097,0.00009399,-0.00003363,-0.00001076,-0.00000419,0.00000942,-0.0
 0001106,-0.00001225,0.00011074,-0.00006618,-0.00023501,-0.00018733,-0.
 00019796,-0.00012196,-0.00014471,0.00005232,0.00000491,0.00155142,-0.0
 0479369,-0.00151650,0.00417674,0.00121627,0.00137573,0.00057051,0.0011
 4142,-0.00043621,0.00779963,-0.00948054,-0.01611648,-0.00240808,-0.005
 87051,-0.00282254,0.00069938,-0.00074665,0.00105496,-0.00169239,-0.000
 44346,0.00001797,-0.00405935,0.00609726,0.00044571,-0.00002068,0.00000
 932,-0.00002966,0.00010825,-0.00003647,-0.00008299,-0.00000106,-0.0000
 0240,0.00000735,-0.00000342,-0.00001148,0.00000265,-0.00000410,-0.0000
 0790,0.00001461,0.00000600,0.00000842,-0.00001784,0.00000146,0.0000025
 0,-0.00000204,0.00003125,-0.00001931,0.00003610,0.00000457,0.00000916,
 -0.00000109,0.00000018,0.00000018,-0.00000739,-0.00003949,0.00000770,-
 0.00001117,0.00001166,-0.00000687,0.00000424,0.00000703,-0.00000243,0.
 00000247,-0.00000475,0.00001122,-0.00002768,-0.00001459,-0.00001222,-0
 .00001196,0.00000534,-0.00000445,0.00000272,-0.00002500,0.00008064,0.0
 0003159,0.00030860,0.00025128,-0.00009499,0.00016190,-0.00014180,-0.00
 013187,0.00026481,-0.00096999,0.00132011,0.00240242,0.00620822,-0.0070
 5660,0.00415407,-0.00119086,-0.00364717,-0.02717434,-0.01228938,-0.053
 94107,-0.00218780,0.00075683,0.00048415,0.00014636,-0.00026009,-0.0000
 4548,-0.00001843,0.00002618,-0.00002931,0.00000435,0.00000397,-0.00000
 583,0.00000494,0.00000462,-0.00001361,-0.00005329,-0.00003083,0.000021
 77,-0.06520703,-0.05017310,0.14544165,0.00000983,-0.00001061,0.0000120
 6,0.00001052,-0.00000969,0.00000808,-0.00000802,0.00000146,-0.00000620
 ,-0.00000920,0.00000154,-0.00000757,0.00000348,0.00000743,0.00000325,0
 .00000189,0.00000158,-0.00000765,0.00000064,0.00000221,-0.00000595,-0.
 00000857,-0.00000271,-0.00000403,0.00001607,-0.00001011,-0.00001152,0.
 00001233,-0.00003460,0.00001938,-0.00003549,-0.00011537,-0.00006244,0.
 00004827,0.00005062,-0.00006803,0.00000150,-0.00001299,0.00003191,0.00
 000451,-0.00005884,0.00005069,-0.00000601,0.00008502,-0.00001409,0.000
 00257,0.00000886,-0.00000183,0.00017455,-0.00004636,0.00001187,0.00000
 462,-0.00000223,-0.00000572,0.00000091,-0.00000263,0.00001475,0.000000
 08,0.00000164,0.00000505,-0.00004199,0.00000194,-0.00000241,0.00001132
 ,-0.00000418,-0.00000366,-0.00000131,0.00000796,0.00000406,0.00009494,
 0.00006546,0.00003954,-0.00006265,0.00011671,-0.00007362,0.00002618,-0
 .00001133,-0.00004131,-0.00040604,0.00022805,0.00008516,0.00037867,0.0
 0068802,-0.00010482,-0.00114645,-0.00044019,-0.00038048,-0.00689028,-0
 .00046122,0.00723051,-0.07538921,0.00544119,0.10807541,0.00062150,-0.0
 0046745,0.00028400,-0.00047444,-0.00019815,-0.00017182,0.00045695,0.00
 031220,-0.00091576,0.00000835,-0.00001869,-0.00001847,-0.00000449,-0.0
 0006965,-0.00001921,0.00000093,0.00001364,-0.00002640,0.00000602,0.000
 00266,0.00000671,-0.00000361,0.00000793,-0.00000379,0.00000104,-0.0000
 0171,0.00000615,0.00000473,-0.00000484,0.00000455,-0.00002910,0.000007
 03,-0.00002163,-0.00000252,-0.00000201,0.00000081,0.00000203,-0.000000
 90,0.00000581,0.00001498,-0.00000810,0.00001119,-0.00000448,0.00000420
 ,-0.00000257,0.00000256,0.00000436,-0.00000779,0.00001980,-0.00001246,
 0.00002089,0.00000690,-0.00000180,-0.00000587,0.00000190,0.00000687,-0
 .00001135,-0.00004703,-0.00003711,0.00010089,0.00005761,-0.00003328,0.
 00007967,0.00000602,-0.00003584,0.00004030,-0.00005164,0.00002697,-0.0
 0050909,0.00045032,-0.00013177,0.00032113,0.00006095,0.00037884,-0.000
 08671,0.00049519,0.00142514,-0.00275462,-0.00029537,0.00005792,-0.0000
 2295,-0.00002050,-0.00009167,0.00001757,0.00000747,-0.00000545,-0.0000
 0089,0.00000675,0.00000083,-0.00000261,-0.00000198,-0.00000313,0.00000
 442,0.00001372,0.00000419,-0.00000117,0.00028867,0.00049551,0.00034038
 ,0.08118214,-0.00000774,0.00000268,-0.00000980,0.00000128,0.00000233,0
 .00001252,0.00000110,-0.00000085,0.00000042,-0.00000438,-0.00000516,-0
 .00000161,0.00001044,-0.00000602,0.00000255,-0.00000967,0.00000726,-0.
 00000389,-0.00000343,-0.00000141,0.00000544,-0.00000984,0.00000614,0.0
 0000840,0.00003053,0.00002729,0.00000527,0.00000314,0.00006366,-0.0000
 0452,-0.00004423,-0.00013493,-0.00009091,0.00000119,0.00003372,-0.0000
 4281,0.00003730,0.00001375,0.00000154,0.00000243,-0.00009157,-0.000037
 64,0.00001734,-0.00002144,-0.00004343,-0.00000511,-0.00000433,0.000001
 60,-0.00016845,0.00001164,0.00007411,-0.00000423,0.00000474,0.00000043
 ,0.00000071,0.00000289,-0.00000175,0.00000260,-0.00000320,-0.00000636,
 -0.00002084,-0.00001229,0.00000533,0.00000174,-0.00000370,0.00000896,0
 .00000098,0.00000630,0.00000415,0.00045093,0.00009795,-0.00009865,-0.0
 0012726,0.00005481,-0.00003573,-0.00003901,-0.00004387,-0.00000423,0.0
 0000455,-0.00051919,0.00046341,0.00008540,0.00015621,-0.00040869,0.000
 44270,0.00008060,0.00046385,-0.00056314,-0.00123191,0.00232165,0.01249
 880,-0.01403678,-0.02273404,-0.00070350,-0.00004636,-0.00031111,0.0003
 6096,0.00006292,-0.00041871,-0.00025440,0.00046985,-0.00040937,-0.0000
 0102,-0.00003601,0.00003454,-0.00004407,0.00003537,-0.00002565,-0.0000
 1368,-0.00000209,-0.00000154,-0.00000887,0.00000243,0.00001184,-0.0000
 1039,0.00001417,-0.00001235,0.00000070,0.00000043,0.00000096,0.0000053
 6,-0.00000991,0.00001192,-0.00000304,-0.00000747,0.00001078,0.00000171
 ,0.00000168,0.00000008,0.00000076,-0.00000172,-0.00000258,-0.00000877,
 0.00000017,0.00000222,0.00000197,-0.00000115,0.00000171,0.00000582,0.0
 0000188,-0.00000447,0.00001060,-0.00000243,0.00000528,0.00000425,-0.00
 000210,-0.00000344,0.00000411,0.00000380,-0.00000763,0.00000872,-0.000
 03119,0.00006267,0.00000765,-0.00000354,0.00003562,-0.00003458,0.00006
 120,0.00005873,0.00027883,0.00030150,-0.00056889,-0.00037573,0.0003745
 1,0.00002257,0.00002239,-0.00102917,0.00077822,-0.00536980,-0.00027810
 ,0.00833858,0.00091682,-0.00059910,0.00037884,0.00000608,-0.00002103,0
 .00012199,-0.00001135,-0.00000148,0.00000245,0.00000821,0.00000354,-0.
 00000647,0.00000034,-0.00000140,-0.00000184,0.00000214,-0.00000694,0.0
 0000618,-0.00090426,-0.00083144,0.00022644,-0.00660853,0.01771721,-0.0
 0000016,-0.00001246,0.00001946,0.00000497,-0.00000503,0.00001196,-0.00
 000752,0.00000189,-0.00000910,-0.00002236,0.00000132,-0.00001244,-0.00
 000389,-0.00000528,0.00001243,0.00000611,0.00000203,-0.00000450,0.0000
 0202,0.00000883,-0.00000864,-0.00001523,0.00000625,-0.00000471,0.00001
 810,-0.00000819,0.00003033,0.00002127,0.00000174,-0.00002573,0.0000070
 8,0.00005122,-0.00000139,0.00006617,0.00007636,-0.00006527,-0.00000684
 ,-0.00001754,0.00005777,-0.00002251,-0.00003633,0.00002797,-0.00004215
 ,0.00000304,0.00000027,-0.00000057,0.00000455,-0.00000905,0.00000609,-
 0.00005655,0.00002913,0.00000318,-0.00000033,-0.00001492,0.00000224,-0
 .00000449,0.00002147,-0.00000129,0.00000239,0.00001128,-0.00004334,0.0
 0000202,0.00000967,0.00001889,-0.00000849,-0.00000400,0.00000662,0.000
 00429,-0.00000150,0.00003831,0.00000577,0.00005543,-0.00013532,0.00013
 302,0.00006182,0.00001272,-0.00000172,-0.00003847,-0.00049788,-0.00006
 676,-0.00017808,0.00026788,0.00027657,-0.00014543,-0.00017920,0.000146
 65,0.00007442,-0.00155813,-0.00022723,0.00366979,0.11191392,-0.0134591
 2,-0.19108863,-0.00021564,0.00001230,0.00008339,0.00032826,-0.00017649
 ,-0.00025927,-0.00010036,0.00018808,-0.00076016,0.00001258,-0.00003472
 ,0.00001989,-0.00009256,-0.00002045,0.00000809,0.00000369,0.00000146,-
 0.00001388,0.00000532,-0.00000735,0.00001390,0.00000025,0.00001974,-0.
 00002108,-0.00000268,-0.00000734,0.00001523,0.00000747,-0.00000842,0.0
 0000782,-0.00003960,0.00001341,-0.00003393,-0.00000329,-0.00000608,-0.
 00000031,0.00000338,-0.00000043,0.00000870,0.00002442,-0.00001074,0.00
 001526,-0.00000697,0.00000514,-0.00000571,0.00000178,0.00000520,-0.000
 00913,0.00001711,-0.00001274,0.00001614,0.00000795,-0.00000089,-0.0000
 0614,0.00000180,0.00000655,-0.00001149,-0.00002201,-0.00000887,0.00010
 438,0.00013047,0.00003979,0.00001398,-0.00004667,-0.00003666,0.0000256
 9,-0.00019007,0.00000280,-0.00052602,0.00011621,-0.00030905,0.00024151
 ,0.00004181,0.00199204,-0.00018071,0.00221058,0.00124817,-0.00491399,-
 0.00039707,-0.00058203,0.00059726,-0.00004830,0.00000011,0.00000435,0.
 00000729,-0.00000635,0.00000393,0.00000494,-0.00000050,-0.00000054,-0.
 00000304,-0.00000666,0.00001109,0.00001578,-0.00000822,-0.00000020,-0.
 00079069,-0.00175865,0.00027251,-0.11091680,0.01289965,0.19265615,0.00
 001198,-0.00000910,0.00001808,-0.00000793,0.00000291,0.00000014,-0.000
 00758,0.00000227,-0.00000743,-0.00000193,0.00000480,0.00000236,0.00001
 290,0.00000719,-0.00000514,0.00000552,0.00000494,-0.00000004,0.0000031
 5,-0.00000392,-0.00001023,-0.00000026,0.00000064,-0.00000675,-0.000001
 57,0.00004655,0.00002213,0.00006909,-0.00000659,-0.00002344,0.00000609
 ,-0.00002594,-0.00007929,0.00003723,-0.00002369,-0.00006984,-0.0000255
 5,0.00001100,0.00002636,0.00002945,-0.00003658,0.00004324,-0.00000336,
 0.00009759,0.00007694,0.00000089,0.00000173,-0.00000491,-0.00001150,0.
 00007138,-0.00006092,0.00000549,-0.00000362,-0.00000287,0.00000029,-0.
 00000298,0.00001302,-0.00000114,0.00000240,0.00000655,-0.00003144,-0.0
 0001281,-0.00001515,0.00000872,-0.00000440,-0.00001037,-0.00000305,0.0
 0001107,0.00000414,0.00004371,-0.00010210,-0.00017907,0.00018941,-0.00
 007726,0.00006290,0.00001260,-0.00002729,0.00007212,-0.00038447,0.0000
 4637,-0.00015905,-0.00101905,0.00091835,0.00023138,0.00024536,-0.00049
 782,-0.00019058,-0.00651301,-0.00171322,0.00368800,0.00031366,-0.00076
 900,-0.00091804,0.00029870,0.00012156,-0.00004553,0.00019635,0.0001473
 1,0.00011280,0.00011088,-0.00062198,-0.00010305,-0.00000427,0.00001308
 ,-0.00000572,0.00001812,0.00001701,0.00002609,0.00000772,0.00000107,0.
 00000289,0.00000347,0.00000448,-0.00000846,0.00000301,0.00000067,-0.00
 000052,-0.00000173,-0.00000160,0.00000347,-0.00000040,0.00000041,-0.00
 000016,-0.00002173,0.00000808,-0.00002298,-0.00000247,-0.00000375,0.00
 000049,0.00000021,-0.00000072,0.00000473,0.00001735,-0.00000686,0.0000
 0706,-0.00000486,0.00000276,-0.00000074,-0.00000089,0.00000272,-0.0000
 0351,0.00001146,-0.00000768,0.00001252,0.00000852,0.00000472,0.0000016
 0,-0.00000084,0.00000366,-0.00000514,-0.00004687,-0.00003070,0.0000655
 9,0.00000351,-0.00002198,0.00005229,0.00004306,-0.00000386,0.00005258,
 -0.00004825,0.00018079,-0.00008126,-0.00009043,0.00012212,-0.00036589,
 0.00046484,-0.00024999,0.00012870,0.00221004,0.00257242,-0.00348763,-0
 .00055030,0.00017196,-0.00024027,-0.00001738,-0.00000112,0.00001381,0.
 00001189,-0.00000089,0.00000159,0.00000156,-0.00000105,0.00000088,-0.0
 0000038,-0.00000204,0.00000212,0.00001021,0.00000207,-0.00000343,-0.11
 934738,-0.09588663,0.08023947,0.00042097,0.00011872,0.00007550,0.12331
 261,-0.00000072,0.00000747,-0.00001659,0.00000546,0.00000176,-0.000024
 64,0.00001000,-0.00000422,0.00000931,0.00002150,0.00000077,0.00000314,
 -0.00001239,0.00000080,0.00000180,0.00000194,-0.00000393,0.00000943,0.
 00000163,-0.00000776,0.00000407,0.00001664,-0.00001446,0.00000482,-0.0
 0002623,0.00001476,-0.00003057,-0.00004072,-0.00002264,-0.00000823,-0.
 00000027,-0.00002600,0.00004221,-0.00005477,0.00000137,0.00013759,0.00
 000005,0.00003477,-0.00002780,-0.00011583,0.00007014,0.00003429,0.0000
 2268,-0.00009170,-0.00006256,0.00000251,-0.00000479,0.00000483,0.00006
 042,-0.00000801,-0.00003556,-0.00000279,0.00000011,0.00000986,-0.00000
 155,0.00000332,-0.00001913,-0.00000063,-0.00000035,-0.00000669,0.00005
 787,0.00002750,0.00000826,-0.00001786,0.00000429,-0.00000475,0.0000022
 7,-0.00001717,-0.00000644,-0.00027339,0.00004873,0.00032442,0.00002414
 ,-0.00001050,-0.00009781,-0.00002316,0.00000920,-0.00000026,0.00042790
 ,-0.00031517,-0.00060944,0.00020546,0.00023310,0.00019637,-0.00036184,
 0.00026448,0.00023449,0.00471739,0.00248274,-0.00419118,0.00038224,-0.
 00070033,-0.00191769,0.00012820,-0.00024114,0.00043045,-0.00055457,-0.
 00022445,0.00020594,0.00096769,0.00003538,0.00020971,-0.00000266,0.000
 03590,-0.00004526,0.00007786,-0.00003273,0.00000870,-0.00000653,0.0000
 0365,-0.00000045,-0.00000183,-0.00000444,-0.00000844,0.00000734,-0.000
 02036,0.00002645,0.00000278,0.00000472,-0.00001229,-0.00000756,0.00001
 041,-0.00001287,0.00003925,-0.00001009,0.00002753,0.00000240,0.0000044
 6,-0.00000029,-0.00000284,0.00000143,-0.00000798,-0.00001989,0.0000117
 1,-0.00001503,0.00000326,-0.00000428,0.00000202,-0.00000432,-0.0000065
 9,0.00001044,-0.00002135,0.00000964,-0.00002113,-0.00002137,-0.0000078
 6,0.00000141,-0.00000328,-0.00000924,0.00001421,0.00004418,0.00009960,
 -0.00009331,0.00000091,-0.00002066,-0.00009029,0.00005793,0.00003320,-
 0.00006711,-0.00006828,-0.00059263,0.00043678,0.00047097,0.00067023,0.
 00111553,-0.00003853,0.00021508,-0.00022650,0.00043039,-0.00070153,0.0
 0176555,0.00001497,0.00023571,-0.00092986,0.00004239,0.00004055,-0.000
 03807,-0.00000595,0.00000088,-0.00000736,-0.00000880,-0.00000114,0.000
 00367,0.00000180,0.00000586,-0.00000771,-0.00002161,0.00000063,-0.0000
 0337,-0.10146090,-0.09777128,0.07028148,-0.00050238,-0.00059335,-0.000
 25023,0.09543237,0.09684447,0.00000655,-0.00001478,0.00001366,-0.00001
 196,-0.00000201,0.00000438,-0.00000605,0.00000275,-0.00000614,0.000003
 45,0.00000611,-0.00000290,0.00000038,0.00000460,-0.00000333,0.00000986
 ,0.00000198,0.00000661,0.00000667,0.00000388,-0.00000691,-0.00000872,0
 .00000012,-0.00000541,-0.00001985,0.00002084,0.00002815,0.00003347,-0.
 00001355,-0.00004175,-0.00005933,-0.00003776,0.00003469,0.00002348,-0.
 00003011,0.00000578,-0.00003335,-0.00000734,0.00002947,0.00004770,-0.0
 0000512,-0.00005170,0.00000142,-0.00015889,-0.00013099,0.00000387,0.00
 000553,-0.00000844,0.00001296,0.00000123,-0.00002585,0.00000391,-0.000
 00386,-0.00000738,0.00000103,-0.00000460,0.00001191,-0.00000334,0.0000
 0372,0.00001148,-0.00000226,-0.00000177,-0.00000775,0.00000494,0.00000
 299,-0.00000490,0.00000101,-0.00000091,-0.00000204,-0.00036348,-0.0000
 7303,0.00016266,0.00011566,0.00003200,0.00009252,0.00002534,0.00003610
 ,0.00003533,-0.00021627,0.00027282,-0.00063352,-0.00027715,0.00029055,
 -0.00022560,0.00001741,-0.00020106,0.00018795,0.00088639,0.00072640,-0
 .00174031,0.00046690,0.00009859,0.00020447,0.00028503,0.00010152,0.000
 36843,-0.00013344,-0.00037838,0.00015599,-0.00031339,-0.00017980,-0.00
 001891,0.00000918,0.00001596,-0.00003361,0.00001681,-0.00002374,0.0000
 4144,0.00001299,0.00000057,0.00000372,0.00000939,-0.00000445,0.0000011
 8,0.00001158,0.00000067,-0.00000052,-0.00000228,-0.00000524,0.00000679
 ,-0.00000262,0.00000504,-0.00000746,-0.00001625,0.00001287,-0.00002629
 ,-0.00000259,-0.00000646,-0.00000078,0.00000022,0.00000070,0.00000475,
 0.00001952,-0.00000416,0.00000500,-0.00000288,0.00000340,-0.00000212,-
 0.00000440,0.00000087,0.00000004,-0.00000250,-0.00000194,0.00000240,0.
 00000315,0.00000536,0.00000123,-0.00000273,-0.00000051,0.00000170,-0.0
 0001726,-0.00000381,-0.00002233,-0.00003104,-0.00004389,-0.00002852,0.
 00003371,0.00006590,0.00002327,-0.00029816,-0.00005012,0.00038086,-0.0
 0046628,-0.00011250,-0.00196329,0.00044876,0.00003753,0.00022470,0.006
 68334,0.00573604,-0.00564499,-0.00089288,0.00022279,0.00000639,0.00001
 607,0.00006198,-0.00010373,0.00001134,-0.00000201,-0.00000253,-0.00000
 524,-0.00000347,0.00000567,-0.00000147,-0.00000237,0.00000700,0.000008
 39,0.00000797,-0.00000394,0.07344474,0.06134888,-0.06450236,-0.0005353
 0,-0.00109280,0.00014192,-0.07895415,-0.06666783,0.07305479\\0.0000062
 0,-0.00000009,0.00003226,0.00000801,-0.00001205,0.00000538,0.00000068,
 0.00000254,-0.00001385,-0.00000380,-0.00000032,0.00000401,-0.00000333,
 0.00002099,0.00000511,0.00001259,-0.00000413,-0.00000574,-0.00000785,-
 0.00000209,-0.00000971,0.00000234,0.00000126,-0.00000004,0.00000962,0.
 00000263,-0.00001771,-0.00000476,0.00000036,0.00000795,0.00000463,-0.0
 0001042,0.00000186,-0.00001876,0.00001826,0.00004078,0.00000534,0.0000
 0297,-0.00000137,0.00000493,-0.00001063,0.00001291,-0.00000247,-0.0000
 0299,0.00000274,-0.00000403,0.00000290,0.00001176,-0.00000179,-0.00000
 379,-0.00000113,-0.00000994,0.00000229,0.00000208,-0.00000633,0.000008
 04,-0.00001113,0.00000336,-0.00000284,0.00001255,-0.00002363,-0.000026
 69,-0.00010844,-0.00000662,0.00001730,0.00000962,-0.00000858,-0.000001
 28,-0.00000030,-0.00000464,0.00000429,-0.00000582,-0.00000385,-0.00000
 090,-0.00000243,-0.00000678,-0.00000561,0.00000416,-0.00000936,0.00000
 667,-0.00000597,0.00000566,-0.00000408,0.00000515,0.00000389,-0.000009
 30,0.00000325,-0.00000753,0.00000856,-0.00000345,-0.00000179,-0.000002
 58,0.00000665,0.00000096,-0.00000451,-0.00000250,0.00001230,0.00000614
 ,-0.00000523,0.00000077,-0.00000354,0.00000375,-0.00000150,-0.00000118
 ,0.00000374,0.00001345,0.00000535,-0.00000333,-0.00001141,-0.00001093,
 -0.00000286,-0.00000705,0.00000616,-0.00000113,0.00001707,0.00000154,-
 0.00000297,0.00001490,-0.00001807,-0.00001705,-0.00000348,-0.00000246,
 -0.00000073,0.00002805,-0.00000132,0.00003474,-0.00000579,0.00001043,-
 0.00000029,0.00000848,0.00000102,-0.00001837,-0.00001343,-0.00001545,-
 0.00001659,0.00000221,-0.00000238,-0.00000413,0.00000367,0.00000674,0.
 00001056,-0.00001945,0.00001629,0.00004763,0.00002570,0.00000476,-0.00
 000827,-0.00000074,0.00000328,-0.00000066,-0.00001075,-0.00001529,-0.0
 0000272,0.00001259,-0.00000891,-0.00001413,-0.00000265,-0.00000502,0.0
 0001092,0.00001134,0.00001217,-0.00004313,-0.00000061,-0.00000461,0.00
 001457,0.00000238,-0.00000695,0.00001803,-0.00000051,0.00001278,-0.000
 01631,-0.00000073,-0.00000403,0.00000503,-0.00000623,-0.00000020,0.000
 00051,0.00000275,0.00000535,-0.00000107,-0.00001089,0.00000760,-0.0000
 0532,-0.00000561,0.00000400,-0.00000254,0.00000936,0.00001157,0.000034
 25,0.00000218,-0.00000783,0.00000349,0.00000084,-0.00000208,-0.0000000
 2,0.00000039,0.00000033,0.00000101\\\@
 The archive entry for this job was punched.


 THOUGH I SPEAK WITH THE TONGUES OF MEN AND OF ANGELS, 
 AND HAVE NOT LOVE,
 I AM BECOME AS SOUNDING BRASS, A TINKLING CYMBAL.
 AND THOUGH I HAVE THE GIFT OF PROPHECY,
 AND UNDERSTAND ALL MYSTERIES, AND ALL KNOWLEDGE.
 AND THOUGH I HAVE ALL FAITH, SO THAT I COULD REMOVE MOUNTAINS,
 AND HAVE NOT LOVE, I AM NOTHING.
 AND THOUGH I BESTOW ALL MY GOODS TO FEED THE POOR,
 AND THOUGH I GIVE MY BODY TO BE BURNED,
 AND HAVE NOT LOVE IT PROFITETH ME NOTHING.
 LOVE SUFFERETH LONG, AND IS KIND,
 LOVE ENVIETH NOT,
 LOVE VAUNTETH NOT ITSELF, IS NOT PUFFED UP,
 DOTH NOT BEHAVE ITSELF UNSEEMLY, SEEKETH NOT HER OWN,
 IS NOT EASILY PROVOKED, THINKETH NO EVIL,
 REJOICETH NOT IN INIQUITY, BUT REJOICETH IN THE TRUTH,
 BEARETH ALL THINGS, BELIEVETH ALL THINGS,
 HOPETH ALL THINGS, ENDURETH ALL THINGS.
 LOVE NEVER FAILETH, BUT WHETHER THERE BE PROPHECIES, THEY SHALL FAIL, 
 WHETHER THERE BE TONGUES, THEY SHALL CEASE,
 WHETHER THERE BE KNOWLEDGE, IT SHALL VANISH AWAY.
 FOR WE KNOW IN PART, AND WE PROPHESY IN PART.
 BUT WHEN THAT WHICH IS PERFECT IS COME, THEN THAT WHICH IS IN PART 
 SHALL BE DONE AWAY. 
 WHEN I WAS A CHILD, I SPAKE AS A CHILD, I UNDERSTOOD AS A CHILD, 
 I THOUGHT AS A CHILD.
 BUT WHEN I BECAME A MAN, I PUT AWAY CHILDISH THINGS.
 FOR NOW WE SEE THROUGH A GLASS, DARKLY, BUT THEN FACE TO FACE.
 NOW I KNOW IN PART. BUT THEN SHALL I KNOW EVEN AS ALSO I AM KNOWN.
 AND NOW ABIDETH FAITH, HOPE AND LOVE, THESE THREE.
 BUT THE GREATEST OF THESE IS LOVE.

                     I CORINTHIANS 13
 Job cpu time:       6 days  8 hours 14 minutes 23.3 seconds.
 Elapsed time:       0 days  3 hours 19 minutes 16.4 seconds.
 File lengths (MBytes):  RWF=  14494 Int=      0 D2E=      0 Chk=    143 Scr=      2
 Normal termination of Gaussian 16 at Wed Feb 22 15:34:41 2023.
