 Entering Gaussian System, Link 0=/apps/GAU16/avx2/g16/g16
 Initial command:
 /apps/GAU16/avx2//g16/l1.exe "/localscratch/chegho/Gau-66312.inp" -scrdir="/localscratch/chegho/"
 Entering Link 1 = /apps/GAU16/avx2//g16/l1.exe PID=     66313.
  
 Copyright (c) 1988-2019, Gaussian, Inc.  All Rights Reserved.
  
 This is part of the Gaussian(R) 16 program.  It is based on
 the Gaussian(R) 09 system (copyright 2009, Gaussian, Inc.),
 the Gaussian(R) 03 system (copyright 2003, Gaussian, Inc.),
 the Gaussian(R) 98 system (copyright 1998, Gaussian, Inc.),
 the Gaussian(R) 94 system (copyright 1995, Gaussian, Inc.),
 the Gaussian 92(TM) system (copyright 1992, Gaussian, Inc.),
 the Gaussian 90(TM) system (copyright 1990, Gaussian, Inc.),
 the Gaussian 88(TM) system (copyright 1988, Gaussian, Inc.),
 the Gaussian 86(TM) system (copyright 1986, Carnegie Mellon
 University), and the Gaussian 82(TM) system (copyright 1983,
 Carnegie Mellon University). Gaussian is a federally registered
 trademark of Gaussian, Inc.
  
 This software contains proprietary and confidential information,
 including trade secrets, belonging to Gaussian, Inc.
  
 This software is provided under written license and may be
 used, copied, transmitted, or stored only in accord with that
 written license.
  
 The following legend is applicable only to US Government
 contracts under FAR:
  
                    RESTRICTED RIGHTS LEGEND
  
 Use, reproduction and disclosure by the US Government is
 subject to restrictions as set forth in subparagraphs (a)
 and (c) of the Commercial Computer Software - Restricted
 Rights clause in FAR 52.227-19.
  
 Gaussian, Inc.
 340 Quinnipiac St., Bldg. 40, Wallingford CT 06492
  
  
 ---------------------------------------------------------------
 Warning -- This program may not be used in any manner that
 competes with the business of Gaussian, Inc. or will provide
 assistance to any competitor of Gaussian, Inc.  The licensee
 of this program is prohibited from giving any competitor of
 Gaussian, Inc. access to this program.  By using this program,
 the user acknowledges that Gaussian, Inc. is engaged in the
 business of creating and licensing software in the field of
 computational chemistry and represents and warrants to the
 licensee that it is not a competitor of Gaussian, Inc. and that
 it will not use this program in any manner prohibited above.
 ---------------------------------------------------------------
  

 Cite this work as:
 Gaussian 16, Revision C.01,
 M. J. Frisch, G. W. Trucks, H. B. Schlegel, G. E. Scuseria, 
 M. A. Robb, J. R. Cheeseman, G. Scalmani, V. Barone, 
 G. A. Petersson, H. Nakatsuji, X. Li, M. Caricato, A. V. Marenich, 
 J. Bloino, B. G. Janesko, R. Gomperts, B. Mennucci, H. P. Hratchian, 
 J. V. Ortiz, A. F. Izmaylov, J. L. Sonnenberg, D. Williams-Young, 
 F. Ding, F. Lipparini, F. Egidi, J. Goings, B. Peng, A. Petrone, 
 T. Henderson, D. Ranasinghe, V. G. Zakrzewski, J. Gao, N. Rega, 
 G. Zheng, W. Liang, M. Hada, M. Ehara, K. Toyota, R. Fukuda, 
 J. Hasegawa, M. Ishida, T. Nakajima, Y. Honda, O. Kitao, H. Nakai, 
 T. Vreven, K. Throssell, J. A. Montgomery, Jr., J. E. Peralta, 
 F. Ogliaro, M. J. Bearpark, J. J. Heyd, E. N. Brothers, K. N. Kudin, 
 V. N. Staroverov, T. A. Keith, R. Kobayashi, J. Normand, 
 K. Raghavachari, A. P. Rendell, J. C. Burant, S. S. Iyengar, 
 J. Tomasi, M. Cossi, J. M. Millam, M. Klene, C. Adamo, R. Cammi, 
 J. W. Ochterski, R. L. Martin, K. Morokuma, O. Farkas, 
 J. B. Foresman, and D. J. Fox, Gaussian, Inc., Wallingford CT, 2019.
 
 ******************************************
 Gaussian 16:  ES64L-G16RevC.01  3-Jul-2019
                 9-Mar-2023 
 ******************************************
 %nprocshared=48
 Will use up to   48 processors via shared memory.
 %chk=Mo19S44_H2S_i3.chk
 %mem=100GB
 ---------------------------------------------------------
 # opt freq b3lyp/gen nosymm pseudo=read scf=maxcycles=500
 ---------------------------------------------------------
 1/18=20,19=15,26=3,38=1/1,3;
 2/9=110,12=2,15=1,17=6,18=5,40=1/2;
 3/5=7,11=2,16=1,17=8,25=1,30=1,71=1,74=-5/1,2,3;
 4//1;
 5/5=2,7=500,38=5/2;
 6/7=2,8=2,9=2,10=2,28=1/1;
 7/30=1/1,2,3,16;
 1/18=20,19=15,26=3/3(2);
 2/9=110,15=1/2;
 99//99;
 2/9=110,15=1/2;
 3/5=7,6=1,11=2,16=1,17=8,25=1,30=1,71=1,74=-5,82=7/1,2,3;
 4/5=5,16=3,69=1/1;
 5/5=2,7=500,38=5/2;
 7/30=1/1,2,3,16;
 1/18=20,19=15,26=3/3(-5);
 2/9=110,15=1/2;
 6/7=2,8=2,9=2,10=2,19=2,28=1/1;
 99/9=1/99;
 -------------------
 Title Card Required
 -------------------
 Symbolic Z-matrix:
 Charge =  0 Multiplicity = 1
 42                    0.35676   1.21319   12.62187 
 16                    2.40564   2.08237   13.60459 
 16                   -0.79546   1.93575   14.75982 
 16                   -0.47142   0.91112   10.35484 
 16                    1.89849  -0.52622   11.90682 
 42                   -2.03191   2.67281   10.97134 
 16                   -2.76713   2.32838   8.67908 
 16                    0.0013    3.54843   12.00512 
 42                    1.00981   2.81673   9.90316 
 16                    0.24847   2.53726   7.5934 
 16                    2.6105    1.08935   9.22885 
 42                    3.38828   1.34771   11.53484 
 42                   -1.36469   4.25561   8.25137 
 16                    5.52149   2.24945   12.65836 
 16                    3.06739   3.69063   10.91055 
 16                   -2.35035   4.99352   10.31631 
 16                    1.3054    6.80093   6.43805 
 42                   -4.33318   3.99255   9.37401 
 16                   -5.85071   2.27362   9.81892 
 16                   -5.26585   5.09759   11.51285 
 42                    2.60306  -0.25484   14.17267 
 16                    4.82875  -0.28828   15.26449 
 16                    1.80855   0.76217   16.40636 
 42                    1.70863   4.43238   7.19248 
 16                    0.90477   4.25809   4.82115 
 16                    0.67305   5.1561    9.25741 
 42                    4.06044   2.98874   8.81678 
 16                    3.2742    2.68462   6.53864 
 16                    3.68451   5.33492   8.26628 
 42                    4.70903   4.60471   6.20223 
 16                    6.79315   5.65048   7.3651 
 16                    4.4215    6.98845   5.52587 
 42                    2.6673    6.04134   4.4282 
 16                    3.92546   4.26088   3.81029 
 16                   -1.16747   7.01226   3.84174 
 42                   -0.79333   5.85996   5.57204 
 16                   -2.16148   3.87945   5.82048 
 16                   -1.76998   6.7164    7.61511 
 42                   -3.55528   5.67192   6.45459 
 16                   -5.40075   4.1435    7.11054 
 16                   -4.36145   6.76738   4.84622 
 42                   -5.16336   2.94293   12.01598 
 16                   -3.06437   3.32009   13.19233 
 16                   -3.67102   0.81555   11.48378 
 42                   -2.72568   0.93125   13.62474 
 16                   -1.11928  -0.74209   13.25287 
 16                   -4.12326   0.2802    15.0688 
 42                   -0.00675  -0.21043   15.58838 
 16                    1.25775  -2.07155   14.74008 
 16                   -1.16193  -0.85804   17.23896 
 42                    5.83151  -0.08158   12.95359 
 16                    5.01531  -0.51869   10.78692 
 16                    8.48294   1.06688   10.56107 
 42                    6.40266   1.4474    10.55139 
 16                    5.78816   1.2557    8.17626 
 16                    6.20751   3.79446   9.84042 
 42                    7.16153   3.21571   7.58803 
 16                    9.2459    2.85478   7.52298 
 16                    2.28068   7.21436   2.70662 
 16                    7.81358  -0.70926   13.29473 
 16                   -6.73026   2.54357   13.38156 
 16                   -5.34572   5.93943   8.22276 
 16                    4.47624  -1.90661   13.95171 
 16                    6.48592   3.04513   5.45684 
 1                     7.52601   5.82511   6.24538 
 1                     5.86439   4.9351    4.98757 
 

 GradGradGradGradGradGradGradGradGradGradGradGradGradGradGradGradGradGrad
 Berny optimization.
 Initialization pass.
                           ----------------------------
                           !    Initial Parameters    !
                           ! (Angstroms and Degrees)  !
 --------------------------                            --------------------------
 ! Name  Definition              Value          Derivative Info.                !
 --------------------------------------------------------------------------------
 ! R1    R(1,2)                  2.4329         estimate D2E/DX2                !
 ! R2    R(1,3)                  2.5339         estimate D2E/DX2                !
 ! R3    R(1,4)                  2.4324         estimate D2E/DX2                !
 ! R4    R(1,5)                  2.4318         estimate D2E/DX2                !
 ! R5    R(1,8)                  2.4413         estimate D2E/DX2                !
 ! R6    R(1,21)                 3.0993         estimate D2E/DX2                !
 ! R7    R(1,46)                 2.5298         estimate D2E/DX2                !
 ! R8    R(2,12)                 2.4061         estimate D2E/DX2                !
 ! R9    R(2,21)                 2.4133         estimate D2E/DX2                !
 ! R10   R(3,45)                 2.4542         estimate D2E/DX2                !
 ! R11   R(3,48)                 2.432          estimate D2E/DX2                !
 ! R12   R(4,6)                  2.4329         estimate D2E/DX2                !
 ! R13   R(4,9)                  2.4555         estimate D2E/DX2                !
 ! R14   R(5,12)                 2.4227         estimate D2E/DX2                !
 ! R15   R(5,21)                 2.3883         estimate D2E/DX2                !
 ! R16   R(6,7)                  2.4318         estimate D2E/DX2                !
 ! R17   R(6,8)                  2.4432         estimate D2E/DX2                !
 ! R18   R(6,16)                 2.4323         estimate D2E/DX2                !
 ! R19   R(6,18)                 3.0966         estimate D2E/DX2                !
 ! R20   R(6,43)                 2.5333         estimate D2E/DX2                !
 ! R21   R(6,44)                 2.5296         estimate D2E/DX2                !
 ! R22   R(7,13)                 2.4216         estimate D2E/DX2                !
 ! R23   R(7,18)                 2.3885         estimate D2E/DX2                !
 ! R24   R(8,9)                  2.4435         estimate D2E/DX2                !
 ! R25   R(9,10)                 2.448          estimate D2E/DX2                !
 ! R26   R(9,11)                 2.4496         estimate D2E/DX2                !
 ! R27   R(9,15)                 2.452          estimate D2E/DX2                !
 ! R28   R(9,26)                 2.4501         estimate D2E/DX2                !
 ! R29   R(10,13)                2.447          estimate D2E/DX2                !
 ! R30   R(10,24)                2.4258         estimate D2E/DX2                !
 ! R31   R(11,12)                2.4473         estimate D2E/DX2                !
 ! R32   R(11,27)                2.4248         estimate D2E/DX2                !
 ! R33   R(12,14)                2.5741         estimate D2E/DX2                !
 ! R34   R(12,15)                2.4458         estimate D2E/DX2                !
 ! R35   R(12,52)                2.5865         estimate D2E/DX2                !
 ! R36   R(13,16)                2.4042         estimate D2E/DX2                !
 ! R37   R(13,26)                2.4445         estimate D2E/DX2                !
 ! R38   R(13,37)                2.5857         estimate D2E/DX2                !
 ! R39   R(13,38)                2.5738         estimate D2E/DX2                !
 ! R40   R(14,51)                2.37           estimate D2E/DX2                !
 ! R41   R(14,54)                2.4205         estimate D2E/DX2                !
 ! R42   R(15,27)                2.4213         estimate D2E/DX2                !
 ! R43   R(16,18)                2.4128         estimate D2E/DX2                !
 ! R44   R(17,24)                2.5183         estimate D2E/DX2                !
 ! R45   R(17,33)                2.5439         estimate D2E/DX2                !
 ! R46   R(17,36)                2.4576         estimate D2E/DX2                !
 ! R47   R(18,19)                2.3357         estimate D2E/DX2                !
 ! R48   R(18,20)                2.5818         estimate D2E/DX2                !
 ! R49   R(18,40)                2.5071         estimate D2E/DX2                !
 ! R50   R(18,42)                2.9616         estimate D2E/DX2                !
 ! R51   R(18,62)                2.4781         estimate D2E/DX2                !
 ! R52   R(19,42)                2.3974         estimate D2E/DX2                !
 ! R53   R(20,42)                2.215          estimate D2E/DX2                !
 ! R54   R(21,22)                2.4793         estimate D2E/DX2                !
 ! R55   R(21,23)                2.5797         estimate D2E/DX2                !
 ! R56   R(21,48)                2.9694         estimate D2E/DX2                !
 ! R57   R(21,49)                2.3307         estimate D2E/DX2                !
 ! R58   R(21,63)                2.5072         estimate D2E/DX2                !
 ! R59   R(22,51)                2.5276         estimate D2E/DX2                !
 ! R60   R(22,63)                2.1134         estimate D2E/DX2                !
 ! R61   R(23,48)                2.2159         estimate D2E/DX2                !
 ! R62   R(24,25)                2.5099         estimate D2E/DX2                !
 ! R63   R(24,26)                2.4208         estimate D2E/DX2                !
 ! R64   R(24,28)                2.4358         estimate D2E/DX2                !
 ! R65   R(24,29)                2.4232         estimate D2E/DX2                !
 ! R66   R(25,33)                2.5379         estimate D2E/DX2                !
 ! R67   R(25,36)                2.4522         estimate D2E/DX2                !
 ! R68   R(27,28)                2.4291         estimate D2E/DX2                !
 ! R69   R(27,29)                2.439          estimate D2E/DX2                !
 ! R70   R(27,55)                2.5296         estimate D2E/DX2                !
 ! R71   R(27,56)                2.5114         estimate D2E/DX2                !
 ! R72   R(28,30)                2.4205         estimate D2E/DX2                !
 ! R73   R(29,30)                2.4173         estimate D2E/DX2                !
 ! R74   R(30,31)                2.6057         estimate D2E/DX2                !
 ! R75   R(30,32)                2.4945         estimate D2E/DX2                !
 ! R76   R(30,33)                3.0626         estimate D2E/DX2                !
 ! R77   R(30,34)                2.5404         estimate D2E/DX2                !
 ! R78   R(30,64)                2.479          estimate D2E/DX2                !
 ! R79   R(30,66)                1.7086         estimate D2E/DX2                !
 ! R80   R(31,57)                2.4726         estimate D2E/DX2                !
 ! R81   R(31,65)                1.3496         estimate D2E/DX2                !
 ! R82   R(32,33)                2.2758         estimate D2E/DX2                !
 ! R83   R(33,34)                2.266          estimate D2E/DX2                !
 ! R84   R(33,59)                2.1188         estimate D2E/DX2                !
 ! R85   R(35,36)                2.1123         estimate D2E/DX2                !
 ! R86   R(36,37)                2.4199         estimate D2E/DX2                !
 ! R87   R(36,38)                2.4211         estimate D2E/DX2                !
 ! R88   R(36,39)                2.9056         estimate D2E/DX2                !
 ! R89   R(37,39)                2.3575         estimate D2E/DX2                !
 ! R90   R(38,39)                2.3717         estimate D2E/DX2                !
 ! R91   R(39,40)                2.4844         estimate D2E/DX2                !
 ! R92   R(39,41)                2.1064         estimate D2E/DX2                !
 ! R93   R(39,62)                2.5305         estimate D2E/DX2                !
 ! R94   R(40,62)                2.1132         estimate D2E/DX2                !
 ! R95   R(42,43)                2.4355         estimate D2E/DX2                !
 ! R96   R(42,44)                2.6526         estimate D2E/DX2                !
 ! R97   R(42,61)                2.1165         estimate D2E/DX2                !
 ! R98   R(43,45)                2.4512         estimate D2E/DX2                !
 ! R99   R(44,45)                2.3432         estimate D2E/DX2                !
 ! R100  R(45,46)                2.3492         estimate D2E/DX2                !
 ! R101  R(45,47)                2.1124         estimate D2E/DX2                !
 ! R102  R(46,48)                2.641          estimate D2E/DX2                !
 ! R103  R(48,49)                2.4046         estimate D2E/DX2                !
 ! R104  R(48,50)                2.1162         estimate D2E/DX2                !
 ! R105  R(51,52)                2.3562         estimate D2E/DX2                !
 ! R106  R(51,54)                2.9042         estimate D2E/DX2                !
 ! R107  R(51,60)                2.1069         estimate D2E/DX2                !
 ! R108  R(51,63)                2.4827         estimate D2E/DX2                !
 ! R109  R(52,54)                2.4178         estimate D2E/DX2                !
 ! R110  R(53,54)                2.1148         estimate D2E/DX2                !
 ! R111  R(54,55)                2.4608         estimate D2E/DX2                !
 ! R112  R(54,56)                2.4601         estimate D2E/DX2                !
 ! R113  R(55,57)                2.4645         estimate D2E/DX2                !
 ! R114  R(56,57)                2.5136         estimate D2E/DX2                !
 ! R115  R(57,58)                2.1164         estimate D2E/DX2                !
 ! R116  R(57,64)                2.2422         estimate D2E/DX2                !
 ! A1    A(2,1,3)               86.5751         estimate D2E/DX2                !
 ! A2    A(2,1,4)              135.0371         estimate D2E/DX2                !
 ! A3    A(2,1,5)               80.8163         estimate D2E/DX2                !
 ! A4    A(2,1,8)               83.2767         estimate D2E/DX2                !
 ! A5    A(2,1,46)             131.815          estimate D2E/DX2                !
 ! A6    A(3,1,4)              131.8338         estimate D2E/DX2                !
 ! A7    A(3,1,5)              137.7609         estimate D2E/DX2                !
 ! A8    A(3,1,8)               82.7717         estimate D2E/DX2                !
 ! A9    A(3,1,21)              92.4333         estimate D2E/DX2                !
 ! A10   A(3,1,46)              75.2045         estimate D2E/DX2                !
 ! A11   A(4,1,5)               81.546          estimate D2E/DX2                !
 ! A12   A(4,1,8)               80.4309         estimate D2E/DX2                !
 ! A13   A(4,1,21)             130.8662         estimate D2E/DX2                !
 ! A14   A(4,1,46)              86.4359         estimate D2E/DX2                !
 ! A15   A(5,1,8)              134.605          estimate D2E/DX2                !
 ! A16   A(5,1,46)              83.7086         estimate D2E/DX2                !
 ! A17   A(8,1,21)             133.2361         estimate D2E/DX2                !
 ! A18   A(8,1,46)             135.8376         estimate D2E/DX2                !
 ! A19   A(21,1,46)             86.0996         estimate D2E/DX2                !
 ! A20   A(1,2,12)              83.5339         estimate D2E/DX2                !
 ! A21   A(12,2,21)             82.7254         estimate D2E/DX2                !
 ! A22   A(1,3,45)              81.413          estimate D2E/DX2                !
 ! A23   A(1,3,48)              83.589          estimate D2E/DX2                !
 ! A24   A(45,3,48)             92.9487         estimate D2E/DX2                !
 ! A25   A(1,4,6)               83.8167         estimate D2E/DX2                !
 ! A26   A(1,4,9)               82.512          estimate D2E/DX2                !
 ! A27   A(6,4,9)               82.6216         estimate D2E/DX2                !
 ! A28   A(1,5,12)              83.2088         estimate D2E/DX2                !
 ! A29   A(12,5,21)             82.8983         estimate D2E/DX2                !
 ! A30   A(4,6,7)               81.5177         estimate D2E/DX2                !
 ! A31   A(4,6,8)               80.3837         estimate D2E/DX2                !
 ! A32   A(4,6,16)             134.9614         estimate D2E/DX2                !
 ! A33   A(4,6,18)             130.8877         estimate D2E/DX2                !
 ! A34   A(4,6,43)             131.9587         estimate D2E/DX2                !
 ! A35   A(4,6,44)              86.2902         estimate D2E/DX2                !
 ! A36   A(7,6,8)              134.5234         estimate D2E/DX2                !
 ! A37   A(7,6,16)              80.8922         estimate D2E/DX2                !
 ! A38   A(7,6,43)             137.6785         estimate D2E/DX2                !
 ! A39   A(7,6,44)              83.7457         estimate D2E/DX2                !
 ! A40   A(8,6,16)              83.1631         estimate D2E/DX2                !
 ! A41   A(8,6,18)             133.1541         estimate D2E/DX2                !
 ! A42   A(8,6,43)              82.9134         estimate D2E/DX2                !
 ! A43   A(8,6,44)             135.7789         estimate D2E/DX2                !
 ! A44   A(16,6,43)             86.5006         estimate D2E/DX2                !
 ! A45   A(16,6,44)            132.087          estimate D2E/DX2                !
 ! A46   A(18,6,43)             92.3194         estimate D2E/DX2                !
 ! A47   A(18,6,44)             86.3229         estimate D2E/DX2                !
 ! A48   A(43,6,44)             75.2804         estimate D2E/DX2                !
 ! A49   A(6,7,13)              83.0312         estimate D2E/DX2                !
 ! A50   A(13,7,18)             82.9117         estimate D2E/DX2                !
 ! A51   A(1,8,6)               83.4107         estimate D2E/DX2                !
 ! A52   A(1,8,9)               82.576          estimate D2E/DX2                !
 ! A53   A(6,8,9)               82.6558         estimate D2E/DX2                !
 ! A54   A(4,9,8)               79.9316         estimate D2E/DX2                !
 ! A55   A(4,9,10)              84.1085         estimate D2E/DX2                !
 ! A56   A(4,9,11)              84.1206         estimate D2E/DX2                !
 ! A57   A(4,9,15)             135.0094         estimate D2E/DX2                !
 ! A58   A(4,9,26)             134.9554         estimate D2E/DX2                !
 ! A59   A(8,9,10)             135.846          estimate D2E/DX2                !
 ! A60   A(8,9,11)             135.8599         estimate D2E/DX2                !
 ! A61   A(8,9,15)              83.4653         estimate D2E/DX2                !
 ! A62   A(8,9,26)              83.3433         estimate D2E/DX2                !
 ! A63   A(10,9,11)             82.1257         estimate D2E/DX2                !
 ! A64   A(10,9,15)            133.5761         estimate D2E/DX2                !
 ! A65   A(10,9,26)             79.4896         estimate D2E/DX2                !
 ! A66   A(11,9,15)             79.4019         estimate D2E/DX2                !
 ! A67   A(11,9,26)            133.6736         estimate D2E/DX2                !
 ! A68   A(15,9,26)             83.2995         estimate D2E/DX2                !
 ! A69   A(9,10,13)             82.5971         estimate D2E/DX2                !
 ! A70   A(9,10,24)             83.0815         estimate D2E/DX2                !
 ! A71   A(13,10,24)            83.8373         estimate D2E/DX2                !
 ! A72   A(9,11,12)             82.7532         estimate D2E/DX2                !
 ! A73   A(9,11,27)             83.4049         estimate D2E/DX2                !
 ! A74   A(12,11,27)            83.5347         estimate D2E/DX2                !
 ! A75   A(2,12,5)              81.5446         estimate D2E/DX2                !
 ! A76   A(2,12,11)            135.4785         estimate D2E/DX2                !
 ! A77   A(2,12,14)             81.7223         estimate D2E/DX2                !
 ! A78   A(2,12,15)             82.7322         estimate D2E/DX2                !
 ! A79   A(2,12,52)            136.55           estimate D2E/DX2                !
 ! A80   A(5,12,11)             82.3908         estimate D2E/DX2                !
 ! A81   A(5,12,14)            135.5249         estimate D2E/DX2                !
 ! A82   A(5,12,15)            134.3838         estimate D2E/DX2                !
 ! A83   A(5,12,52)             82.7081         estimate D2E/DX2                !
 ! A84   A(11,12,14)           135.3673         estimate D2E/DX2                !
 ! A85   A(11,12,15)            79.5673         estimate D2E/DX2                !
 ! A86   A(11,12,52)            81.4469         estimate D2E/DX2                !
 ! A87   A(14,12,15)            83.371          estimate D2E/DX2                !
 ! A88   A(14,12,52)            81.8186         estimate D2E/DX2                !
 ! A89   A(15,12,52)           134.4234         estimate D2E/DX2                !
 ! A90   A(7,13,10)             82.5541         estimate D2E/DX2                !
 ! A91   A(7,13,16)             81.6704         estimate D2E/DX2                !
 ! A92   A(7,13,26)            134.6901         estimate D2E/DX2                !
 ! A93   A(7,13,37)             82.6345         estimate D2E/DX2                !
 ! A94   A(7,13,38)            135.5102         estimate D2E/DX2                !
 ! A95   A(10,13,16)           135.7868         estimate D2E/DX2                !
 ! A96   A(10,13,26)            79.6189         estimate D2E/DX2                !
 ! A97   A(10,13,37)            81.2685         estimate D2E/DX2                !
 ! A98   A(10,13,38)           135.1309         estimate D2E/DX2                !
 ! A99   A(16,13,26)            82.8312         estimate D2E/DX2                !
 ! A100  A(16,13,37)           136.5359         estimate D2E/DX2                !
 ! A101  A(16,13,38)            81.6231         estimate D2E/DX2                !
 ! A102  A(26,13,37)           134.2192         estimate D2E/DX2                !
 ! A103  A(26,13,38)            83.1543         estimate D2E/DX2                !
 ! A104  A(37,13,38)            81.8457         estimate D2E/DX2                !
 ! A105  A(12,14,51)            79.5267         estimate D2E/DX2                !
 ! A106  A(12,14,54)            78.795          estimate D2E/DX2                !
 ! A107  A(9,15,12)             82.7357         estimate D2E/DX2                !
 ! A108  A(9,15,27)             83.4293         estimate D2E/DX2                !
 ! A109  A(12,15,27)            83.64           estimate D2E/DX2                !
 ! A110  A(6,16,13)             83.384          estimate D2E/DX2                !
 ! A111  A(13,16,18)            82.77           estimate D2E/DX2                !
 ! A112  A(24,17,33)            82.5378         estimate D2E/DX2                !
 ! A113  A(24,17,36)            83.2345         estimate D2E/DX2                !
 ! A114  A(33,17,36)            93.6954         estimate D2E/DX2                !
 ! A115  A(6,18,19)             94.0676         estimate D2E/DX2                !
 ! A116  A(6,18,20)             91.3492         estimate D2E/DX2                !
 ! A117  A(6,18,40)            143.8818         estimate D2E/DX2                !
 ! A118  A(6,18,42)             66.2409         estimate D2E/DX2                !
 ! A119  A(6,18,62)            151.4162         estimate D2E/DX2                !
 ! A120  A(7,18,16)             82.1752         estimate D2E/DX2                !
 ! A121  A(7,18,19)             88.2039         estimate D2E/DX2                !
 ! A122  A(7,18,20)            140.9055         estimate D2E/DX2                !
 ! A123  A(7,18,40)             93.352          estimate D2E/DX2                !
 ! A124  A(7,18,42)            101.3272         estimate D2E/DX2                !
 ! A125  A(7,18,62)            132.8533         estimate D2E/DX2                !
 ! A126  A(16,18,19)           139.8937         estimate D2E/DX2                !
 ! A127  A(16,18,20)            78.2154         estimate D2E/DX2                !
 ! A128  A(16,18,40)           132.6522         estimate D2E/DX2                !
 ! A129  A(16,18,42)            91.6616         estimate D2E/DX2                !
 ! A130  A(16,18,62)           101.0281         estimate D2E/DX2                !
 ! A131  A(19,18,20)            85.5539         estimate D2E/DX2                !
 ! A132  A(19,18,40)            86.5385         estimate D2E/DX2                !
 ! A133  A(19,18,62)           113.6531         estimate D2E/DX2                !
 ! A134  A(20,18,40)           124.6332         estimate D2E/DX2                !
 ! A135  A(20,18,62)            84.3182         estimate D2E/DX2                !
 ! A136  A(40,18,42)           135.02           estimate D2E/DX2                !
 ! A137  A(42,18,62)           125.3336         estimate D2E/DX2                !
 ! A138  A(1,21,22)            151.3264         estimate D2E/DX2                !
 ! A139  A(1,21,23)             91.3353         estimate D2E/DX2                !
 ! A140  A(1,21,48)             66.076          estimate D2E/DX2                !
 ! A141  A(1,21,49)             94.1675         estimate D2E/DX2                !
 ! A142  A(1,21,63)            144.0418         estimate D2E/DX2                !
 ! A143  A(2,21,5)              82.102          estimate D2E/DX2                !
 ! A144  A(2,21,22)            100.9621         estimate D2E/DX2                !
 ! A145  A(2,21,23)             78.2776         estimate D2E/DX2                !
 ! A146  A(2,21,48)             91.4811         estimate D2E/DX2                !
 ! A147  A(2,21,49)            139.9036         estimate D2E/DX2                !
 ! A148  A(2,21,63)            132.7189         estimate D2E/DX2                !
 ! A149  A(5,21,22)            132.9286         estimate D2E/DX2                !
 ! A150  A(5,21,23)            140.8415         estimate D2E/DX2                !
 ! A151  A(5,21,48)            101.2293         estimate D2E/DX2                !
 ! A152  A(5,21,49)             88.4022         estimate D2E/DX2                !
 ! A153  A(5,21,63)             93.5508         estimate D2E/DX2                !
 ! A154  A(22,21,23)            84.2891         estimate D2E/DX2                !
 ! A155  A(22,21,48)           125.3976         estimate D2E/DX2                !
 ! A156  A(22,21,49)           113.6059         estimate D2E/DX2                !
 ! A157  A(23,21,49)            85.3382         estimate D2E/DX2                !
 ! A158  A(23,21,63)           124.4813         estimate D2E/DX2                !
 ! A159  A(48,21,63)           135.1147         estimate D2E/DX2                !
 ! A160  A(49,21,63)            86.5131         estimate D2E/DX2                !
 ! A161  A(21,22,51)            87.2729         estimate D2E/DX2                !
 ! A162  A(10,24,17)           133.4659         estimate D2E/DX2                !
 ! A163  A(10,24,25)            84.7854         estimate D2E/DX2                !
 ! A164  A(10,24,26)            80.5076         estimate D2E/DX2                !
 ! A165  A(10,24,28)            82.5699         estimate D2E/DX2                !
 ! A166  A(10,24,29)           135.1195         estimate D2E/DX2                !
 ! A167  A(17,24,25)            74.3945         estimate D2E/DX2                !
 ! A168  A(17,24,26)            84.5979         estimate D2E/DX2                !
 ! A169  A(17,24,28)           134.2156         estimate D2E/DX2                !
 ! A170  A(17,24,29)            85.0091         estimate D2E/DX2                !
 ! A171  A(25,24,26)           133.6024         estimate D2E/DX2                !
 ! A172  A(25,24,28)            84.4002         estimate D2E/DX2                !
 ! A173  A(25,24,29)           134.8849         estimate D2E/DX2                !
 ! A174  A(26,24,28)           135.9258         estimate D2E/DX2                !
 ! A175  A(26,24,29)            81.9214         estimate D2E/DX2                !
 ! A176  A(28,24,29)            82.0745         estimate D2E/DX2                !
 ! A177  A(24,25,33)            82.8234         estimate D2E/DX2                !
 ! A178  A(24,25,36)            83.5189         estimate D2E/DX2                !
 ! A179  A(33,25,36)            93.9758         estimate D2E/DX2                !
 ! A180  A(9,26,13)             82.6064         estimate D2E/DX2                !
 ! A181  A(9,26,24)             83.1404         estimate D2E/DX2                !
 ! A182  A(13,26,24)            83.9967         estimate D2E/DX2                !
 ! A183  A(11,27,15)            80.4956         estimate D2E/DX2                !
 ! A184  A(11,27,28)            82.4014         estimate D2E/DX2                !
 ! A185  A(11,27,29)           134.4015         estimate D2E/DX2                !
 ! A186  A(11,27,55)            85.1115         estimate D2E/DX2                !
 ! A187  A(11,27,56)           133.8883         estimate D2E/DX2                !
 ! A188  A(15,27,28)           135.6049         estimate D2E/DX2                !
 ! A189  A(15,27,29)            81.5534         estimate D2E/DX2                !
 ! A190  A(15,27,55)           134.2417         estimate D2E/DX2                !
 ! A191  A(15,27,56)            84.5584         estimate D2E/DX2                !
 ! A192  A(28,27,29)            81.8869         estimate D2E/DX2                !
 ! A193  A(28,27,55)            84.1354         estimate D2E/DX2                !
 ! A194  A(28,27,56)           134.3596         estimate D2E/DX2                !
 ! A195  A(29,27,55)           135.0034         estimate D2E/DX2                !
 ! A196  A(29,27,56)            85.1328         estimate D2E/DX2                !
 ! A197  A(55,27,56)            74.8751         estimate D2E/DX2                !
 ! A198  A(24,28,27)            82.3255         estimate D2E/DX2                !
 ! A199  A(24,28,30)            81.322          estimate D2E/DX2                !
 ! A200  A(27,28,30)            80.7444         estimate D2E/DX2                !
 ! A201  A(24,29,27)            82.3807         estimate D2E/DX2                !
 ! A202  A(24,29,30)            81.6451         estimate D2E/DX2                !
 ! A203  A(27,29,30)            80.6082         estimate D2E/DX2                !
 ! A204  A(28,30,29)            82.5137         estimate D2E/DX2                !
 ! A205  A(28,30,31)           136.9275         estimate D2E/DX2                !
 ! A206  A(28,30,32)           136.6703         estimate D2E/DX2                !
 ! A207  A(28,30,33)            93.2924         estimate D2E/DX2                !
 ! A208  A(28,30,34)            80.8312         estimate D2E/DX2                !
 ! A209  A(28,30,64)            88.1448         estimate D2E/DX2                !
 ! A210  A(28,30,66)           130.7708         estimate D2E/DX2                !
 ! A211  A(29,30,31)            80.6008         estimate D2E/DX2                !
 ! A212  A(29,30,32)            83.915          estimate D2E/DX2                !
 ! A213  A(29,30,33)            94.0345         estimate D2E/DX2                !
 ! A214  A(29,30,34)           135.5727         estimate D2E/DX2                !
 ! A215  A(29,30,64)           138.6422         estimate D2E/DX2                !
 ! A216  A(29,30,66)           146.6369         estimate D2E/DX2                !
 ! A217  A(31,30,32)            80.1931         estimate D2E/DX2                !
 ! A218  A(31,30,33)           127.1186         estimate D2E/DX2                !
 ! A219  A(31,30,34)           136.1564         estimate D2E/DX2                !
 ! A220  A(31,30,64)            79.2439         estimate D2E/DX2                !
 ! A221  A(31,30,66)            72.4708         estimate D2E/DX2                !
 ! A222  A(32,30,34)            80.7051         estimate D2E/DX2                !
 ! A223  A(32,30,64)           127.0345         estimate D2E/DX2                !
 ! A224  A(32,30,66)            72.567          estimate D2E/DX2                !
 ! A225  A(33,30,64)           126.7834         estimate D2E/DX2                !
 ! A226  A(33,30,66)            87.0364         estimate D2E/DX2                !
 ! A227  A(34,30,64)            81.5366         estimate D2E/DX2                !
 ! A228  A(34,30,66)            64.2391         estimate D2E/DX2                !
 ! A229  A(64,30,66)            54.7745         estimate D2E/DX2                !
 ! A230  A(30,31,57)            76.3606         estimate D2E/DX2                !
 ! A231  A(30,31,65)            96.661          estimate D2E/DX2                !
 ! A232  A(57,31,65)            96.9681         estimate D2E/DX2                !
 ! A233  A(17,33,25)            73.4811         estimate D2E/DX2                !
 ! A234  A(17,33,30)            92.2534         estimate D2E/DX2                !
 ! A235  A(17,33,32)            84.6824         estimate D2E/DX2                !
 ! A236  A(17,33,34)           138.3578         estimate D2E/DX2                !
 ! A237  A(17,33,59)           112.2693         estimate D2E/DX2                !
 ! A238  A(25,33,30)            92.5043         estimate D2E/DX2                !
 ! A239  A(25,33,32)           138.8562         estimate D2E/DX2                !
 ! A240  A(25,33,34)            82.8616         estimate D2E/DX2                !
 ! A241  A(25,33,59)           112.8355         estimate D2E/DX2                !
 ! A242  A(30,33,59)           148.43           estimate D2E/DX2                !
 ! A243  A(32,33,34)            91.7503         estimate D2E/DX2                !
 ! A244  A(32,33,59)           107.5874         estimate D2E/DX2                !
 ! A245  A(34,33,59)           108.3454         estimate D2E/DX2                !
 ! A246  A(17,36,25)            76.5063         estimate D2E/DX2                !
 ! A247  A(17,36,35)           103.3586         estimate D2E/DX2                !
 ! A248  A(17,36,37)           139.4623         estimate D2E/DX2                !
 ! A249  A(17,36,38)            84.9333         estimate D2E/DX2                !
 ! A250  A(17,36,39)           136.8427         estimate D2E/DX2                !
 ! A251  A(25,36,35)           103.1899         estimate D2E/DX2                !
 ! A252  A(25,36,37)            83.588          estimate D2E/DX2                !
 ! A253  A(25,36,38)           140.2486         estimate D2E/DX2                !
 ! A254  A(25,36,39)           135.1513         estimate D2E/DX2                !
 ! A255  A(35,36,37)           115.4946         estimate D2E/DX2                !
 ! A256  A(35,36,38)           115.2673         estimate D2E/DX2                !
 ! A257  A(35,36,39)            96.6465         estimate D2E/DX2                !
 ! A258  A(37,36,38)            88.5563         estimate D2E/DX2                !
 ! A259  A(13,37,36)            78.6519         estimate D2E/DX2                !
 ! A260  A(13,37,39)            79.5544         estimate D2E/DX2                !
 ! A261  A(13,38,36)            78.8648         estimate D2E/DX2                !
 ! A262  A(13,38,39)            79.5399         estimate D2E/DX2                !
 ! A263  A(36,39,40)           145.7012         estimate D2E/DX2                !
 ! A264  A(36,39,41)            95.6369         estimate D2E/DX2                !
 ! A265  A(36,39,62)           151.3945         estimate D2E/DX2                !
 ! A266  A(37,39,38)            91.2271         estimate D2E/DX2                !
 ! A267  A(37,39,40)            92.4316         estimate D2E/DX2                !
 ! A268  A(37,39,41)           114.6025         estimate D2E/DX2                !
 ! A269  A(37,39,62)           133.3636         estimate D2E/DX2                !
 ! A270  A(38,39,40)           134.4993         estimate D2E/DX2                !
 ! A271  A(38,39,41)           115.639          estimate D2E/DX2                !
 ! A272  A(38,39,62)            98.2872         estimate D2E/DX2                !
 ! A273  A(40,39,41)           103.7248         estimate D2E/DX2                !
 ! A274  A(41,39,62)           101.9913         estimate D2E/DX2                !
 ! A275  A(18,40,39)            87.6561         estimate D2E/DX2                !
 ! A276  A(18,42,43)            97.7243         estimate D2E/DX2                !
 ! A277  A(18,42,44)            86.9935         estimate D2E/DX2                !
 ! A278  A(18,42,61)           148.2106         estimate D2E/DX2                !
 ! A279  A(19,42,20)            92.8743         estimate D2E/DX2                !
 ! A280  A(19,42,43)           137.1351         estimate D2E/DX2                !
 ! A281  A(19,42,44)            75.7311         estimate D2E/DX2                !
 ! A282  A(19,42,61)           109.0479         estimate D2E/DX2                !
 ! A283  A(20,42,43)            89.9398         estimate D2E/DX2                !
 ! A284  A(20,42,44)           139.5192         estimate D2E/DX2                !
 ! A285  A(20,42,61)           107.209          estimate D2E/DX2                !
 ! A286  A(43,42,44)            74.7066         estimate D2E/DX2                !
 ! A287  A(43,42,61)           110.8313         estimate D2E/DX2                !
 ! A288  A(44,42,61)           113.243          estimate D2E/DX2                !
 ! A289  A(6,43,42)             83.5821         estimate D2E/DX2                !
 ! A290  A(6,43,45)             81.3347         estimate D2E/DX2                !
 ! A291  A(42,43,45)            93.0592         estimate D2E/DX2                !
 ! A292  A(6,44,42)             79.4172         estimate D2E/DX2                !
 ! A293  A(6,44,45)             83.5362         estimate D2E/DX2                !
 ! A294  A(42,44,45)            90.2325         estimate D2E/DX2                !
 ! A295  A(3,45,43)             77.9582         estimate D2E/DX2                !
 ! A296  A(3,45,44)            139.4716         estimate D2E/DX2                !
 ! A297  A(3,45,46)             80.0347         estimate D2E/DX2                !
 ! A298  A(3,45,47)            109.288          estimate D2E/DX2                !
 ! A299  A(43,45,44)            80.2817         estimate D2E/DX2                !
 ! A300  A(43,45,46)           139.5295         estimate D2E/DX2                !
 ! A301  A(43,45,47)           109.2408         estimate D2E/DX2                !
 ! A302  A(44,45,46)            95.5128         estimate D2E/DX2                !
 ! A303  A(44,45,47)           110.0268         estimate D2E/DX2                !
 ! A304  A(46,45,47)           109.9426         estimate D2E/DX2                !
 ! A305  A(1,46,45)             83.5649         estimate D2E/DX2                !
 ! A306  A(1,46,48)             79.5838         estimate D2E/DX2                !
 ! A307  A(45,46,48)            90.2681         estimate D2E/DX2                !
 ! A308  A(3,48,21)             97.805          estimate D2E/DX2                !
 ! A309  A(3,48,23)             90.2352         estimate D2E/DX2                !
 ! A310  A(3,48,46)             74.9156         estimate D2E/DX2                !
 ! A311  A(3,48,49)            137.1687         estimate D2E/DX2                !
 ! A312  A(3,48,50)            111.0238         estimate D2E/DX2                !
 ! A313  A(21,48,46)            86.8824         estimate D2E/DX2                !
 ! A314  A(21,48,50)           147.8938         estimate D2E/DX2                !
 ! A315  A(23,48,46)           139.4538         estimate D2E/DX2                !
 ! A316  A(23,48,49)            92.2432         estimate D2E/DX2                !
 ! A317  A(23,48,50)           107.0728         estimate D2E/DX2                !
 ! A318  A(46,48,49)            75.7441         estimate D2E/DX2                !
 ! A319  A(46,48,50)           113.4653         estimate D2E/DX2                !
 ! A320  A(49,48,50)           108.9871         estimate D2E/DX2                !
 ! A321  A(14,51,22)            98.1886         estimate D2E/DX2                !
 ! A322  A(14,51,52)            91.2952         estimate D2E/DX2                !
 ! A323  A(14,51,60)           115.8647         estimate D2E/DX2                !
 ! A324  A(14,51,63)           134.5624         estimate D2E/DX2                !
 ! A325  A(22,51,52)           133.4828         estimate D2E/DX2                !
 ! A326  A(22,51,54)           151.3202         estimate D2E/DX2                !
 ! A327  A(22,51,60)           101.5855         estimate D2E/DX2                !
 ! A328  A(52,51,60)           114.8033         estimate D2E/DX2                !
 ! A329  A(52,51,63)            92.5345         estimate D2E/DX2                !
 ! A330  A(54,51,60)            96.0711         estimate D2E/DX2                !
 ! A331  A(54,51,63)           145.7813         estimate D2E/DX2                !
 ! A332  A(60,51,63)           103.2648         estimate D2E/DX2                !
 ! A333  A(12,52,51)            79.5215         estimate D2E/DX2                !
 ! A334  A(12,52,54)            78.5997         estimate D2E/DX2                !
 ! A335  A(14,54,52)            88.6116         estimate D2E/DX2                !
 ! A336  A(14,54,53)           114.439          estimate D2E/DX2                !
 ! A337  A(14,54,55)           140.8098         estimate D2E/DX2                !
 ! A338  A(14,54,56)            84.6385         estimate D2E/DX2                !
 ! A339  A(51,54,53)            95.4476         estimate D2E/DX2                !
 ! A340  A(51,54,55)           135.0903         estimate D2E/DX2                !
 ! A341  A(51,54,56)           136.528          estimate D2E/DX2                !
 ! A342  A(52,54,53)           114.6879         estimate D2E/DX2                !
 ! A343  A(52,54,55)            83.5342         estimate D2E/DX2                !
 ! A344  A(52,54,56)           139.3268         estimate D2E/DX2                !
 ! A345  A(53,54,55)           103.6526         estimate D2E/DX2                !
 ! A346  A(53,54,56)           104.5371         estimate D2E/DX2                !
 ! A347  A(55,54,56)            77.0311         estimate D2E/DX2                !
 ! A348  A(27,55,54)            82.6916         estimate D2E/DX2                !
 ! A349  A(27,55,57)            84.0412         estimate D2E/DX2                !
 ! A350  A(54,55,57)            91.6771         estimate D2E/DX2                !
 ! A351  A(27,56,54)            83.0807         estimate D2E/DX2                !
 ! A352  A(27,56,57)            83.4177         estimate D2E/DX2                !
 ! A353  A(54,56,57)            90.5267         estimate D2E/DX2                !
 ! A354  A(31,57,55)           136.1899         estimate D2E/DX2                !
 ! A355  A(31,57,56)            78.3178         estimate D2E/DX2                !
 ! A356  A(31,57,58)           108.1733         estimate D2E/DX2                !
 ! A357  A(31,57,64)            86.8084         estimate D2E/DX2                !
 ! A358  A(55,57,56)            75.9799         estimate D2E/DX2                !
 ! A359  A(55,57,58)           114.8685         estimate D2E/DX2                !
 ! A360  A(55,57,64)            89.9114         estimate D2E/DX2                !
 ! A361  A(56,57,58)           116.1419         estimate D2E/DX2                !
 ! A362  A(56,57,64)           139.013          estimate D2E/DX2                !
 ! A363  A(58,57,64)           104.7481         estimate D2E/DX2                !
 ! A364  A(18,62,39)            87.2754         estimate D2E/DX2                !
 ! A365  A(21,63,51)            87.6492         estimate D2E/DX2                !
 ! A366  A(30,64,57)            83.2416         estimate D2E/DX2                !
 ! D1    D(3,1,2,12)           179.839          estimate D2E/DX2                !
 ! D2    D(4,1,2,12)           -27.8336         estimate D2E/DX2                !
 ! D3    D(5,1,2,12)            40.2886         estimate D2E/DX2                !
 ! D4    D(8,1,2,12)           -97.0454         estimate D2E/DX2                !
 ! D5    D(46,1,2,12)          113.2167         estimate D2E/DX2                !
 ! D6    D(2,1,3,45)          -178.0657         estimate D2E/DX2                !
 ! D7    D(2,1,3,48)           -84.0908         estimate D2E/DX2                !
 ! D8    D(4,1,3,45)            28.0677         estimate D2E/DX2                !
 ! D9    D(4,1,3,48)           122.0426         estimate D2E/DX2                !
 ! D10   D(5,1,3,45)          -105.749          estimate D2E/DX2                !
 ! D11   D(5,1,3,48)           -11.7741         estimate D2E/DX2                !
 ! D12   D(8,1,3,45)            98.2861         estimate D2E/DX2                !
 ! D13   D(8,1,3,48)          -167.739          estimate D2E/DX2                !
 ! D14   D(21,1,3,45)         -128.421          estimate D2E/DX2                !
 ! D15   D(21,1,3,48)          -34.4461         estimate D2E/DX2                !
 ! D16   D(46,1,3,45)          -43.104          estimate D2E/DX2                !
 ! D17   D(46,1,3,48)           50.8709         estimate D2E/DX2                !
 ! D18   D(2,1,4,6)           -111.3116         estimate D2E/DX2                !
 ! D19   D(2,1,4,9)            -27.9755         estimate D2E/DX2                !
 ! D20   D(3,1,4,6)             30.2116         estimate D2E/DX2                !
 ! D21   D(3,1,4,9)            113.5477         estimate D2E/DX2                !
 ! D22   D(5,1,4,6)           -179.1539         estimate D2E/DX2                !
 ! D23   D(5,1,4,9)            -95.8177         estimate D2E/DX2                !
 ! D24   D(8,1,4,6)            -40.9945         estimate D2E/DX2                !
 ! D25   D(8,1,4,9)             42.3416         estimate D2E/DX2                !
 ! D26   D(21,1,4,6)           178.4058         estimate D2E/DX2                !
 ! D27   D(21,1,4,9)           -98.2581         estimate D2E/DX2                !
 ! D28   D(46,1,4,6)            96.6859         estimate D2E/DX2                !
 ! D29   D(46,1,4,9)          -179.978          estimate D2E/DX2                !
 ! D30   D(2,1,5,12)           -39.9879         estimate D2E/DX2                !
 ! D31   D(3,1,5,12)          -114.438          estimate D2E/DX2                !
 ! D32   D(4,1,5,12)            98.4861         estimate D2E/DX2                !
 ! D33   D(8,1,5,12)            30.984          estimate D2E/DX2                !
 ! D34   D(46,1,5,12)         -174.1988         estimate D2E/DX2                !
 ! D35   D(2,1,8,6)            178.758          estimate D2E/DX2                !
 ! D36   D(2,1,8,9)             95.3452         estimate D2E/DX2                !
 ! D37   D(3,1,8,6)            -93.8604         estimate D2E/DX2                !
 ! D38   D(3,1,8,9)           -177.2732         estimate D2E/DX2                !
 ! D39   D(4,1,8,6)             40.8225         estimate D2E/DX2                !
 ! D40   D(4,1,8,9)            -42.5902         estimate D2E/DX2                !
 ! D41   D(5,1,8,6)            108.7562         estimate D2E/DX2                !
 ! D42   D(5,1,8,9)             25.3435         estimate D2E/DX2                !
 ! D43   D(21,1,8,6)           179.6087         estimate D2E/DX2                !
 ! D44   D(21,1,8,9)            96.196          estimate D2E/DX2                !
 ! D45   D(46,1,8,6)           -33.8655         estimate D2E/DX2                !
 ! D46   D(46,1,8,9)          -117.2783         estimate D2E/DX2                !
 ! D47   D(3,1,21,22)          -90.3878         estimate D2E/DX2                !
 ! D48   D(3,1,21,23)           -9.8748         estimate D2E/DX2                !
 ! D49   D(3,1,21,48)           30.2411         estimate D2E/DX2                !
 ! D50   D(3,1,21,49)           75.5474         estimate D2E/DX2                !
 ! D51   D(3,1,21,63)          165.3521         estimate D2E/DX2                !
 ! D52   D(4,1,21,22)          112.7562         estimate D2E/DX2                !
 ! D53   D(4,1,21,23)         -166.7307         estimate D2E/DX2                !
 ! D54   D(4,1,21,48)         -126.6148         estimate D2E/DX2                !
 ! D55   D(4,1,21,49)          -81.3085         estimate D2E/DX2                !
 ! D56   D(4,1,21,63)            8.4961         estimate D2E/DX2                !
 ! D57   D(8,1,21,22)           -8.0255         estimate D2E/DX2                !
 ! D58   D(8,1,21,23)           72.4875         estimate D2E/DX2                !
 ! D59   D(8,1,21,48)          112.6034         estimate D2E/DX2                !
 ! D60   D(8,1,21,49)          157.9097         estimate D2E/DX2                !
 ! D61   D(8,1,21,63)         -112.2856         estimate D2E/DX2                !
 ! D62   D(46,1,21,22)        -165.3717         estimate D2E/DX2                !
 ! D63   D(46,1,21,23)         -84.8586         estimate D2E/DX2                !
 ! D64   D(46,1,21,48)         -44.7428         estimate D2E/DX2                !
 ! D65   D(46,1,21,49)           0.5635         estimate D2E/DX2                !
 ! D66   D(46,1,21,63)          90.3682         estimate D2E/DX2                !
 ! D67   D(2,1,46,45)          116.6485         estimate D2E/DX2                !
 ! D68   D(2,1,46,48)           25.1861         estimate D2E/DX2                !
 ! D69   D(3,1,46,45)           45.2622         estimate D2E/DX2                !
 ! D70   D(3,1,46,48)          -46.2002         estimate D2E/DX2                !
 ! D71   D(4,1,46,45)          -89.7805         estimate D2E/DX2                !
 ! D72   D(4,1,46,48)          178.7571         estimate D2E/DX2                !
 ! D73   D(5,1,46,45)         -171.6559         estimate D2E/DX2                !
 ! D74   D(5,1,46,48)           96.8817         estimate D2E/DX2                !
 ! D75   D(8,1,46,45)          -17.4307         estimate D2E/DX2                !
 ! D76   D(8,1,46,48)         -108.8931         estimate D2E/DX2                !
 ! D77   D(21,1,46,45)         138.8181         estimate D2E/DX2                !
 ! D78   D(21,1,46,48)          47.3557         estimate D2E/DX2                !
 ! D79   D(1,2,12,5)           -40.3758         estimate D2E/DX2                !
 ! D80   D(1,2,12,11)           29.6204         estimate D2E/DX2                !
 ! D81   D(1,2,12,14)         -179.0197         estimate D2E/DX2                !
 ! D82   D(1,2,12,15)           96.6645         estimate D2E/DX2                !
 ! D83   D(1,2,12,52)         -110.2849         estimate D2E/DX2                !
 ! D84   D(21,2,12,5)           39.8248         estimate D2E/DX2                !
 ! D85   D(21,2,12,11)         109.8211         estimate D2E/DX2                !
 ! D86   D(21,2,12,14)         -98.8191         estimate D2E/DX2                !
 ! D87   D(21,2,12,15)         176.8651         estimate D2E/DX2                !
 ! D88   D(21,2,12,52)         -30.0843         estimate D2E/DX2                !
 ! D89   D(12,2,21,5)          -40.4472         estimate D2E/DX2                !
 ! D90   D(12,2,21,22)          91.892          estimate D2E/DX2                !
 ! D91   D(12,2,21,23)         173.6295         estimate D2E/DX2                !
 ! D92   D(12,2,21,48)        -141.5798         estimate D2E/DX2                !
 ! D93   D(12,2,21,49)        -118.4145         estimate D2E/DX2                !
 ! D94   D(12,2,21,63)          47.0888         estimate D2E/DX2                !
 ! D95   D(1,3,45,43)          -99.5683         estimate D2E/DX2                !
 ! D96   D(1,3,45,44)          -40.5742         estimate D2E/DX2                !
 ! D97   D(1,3,45,46)           46.2492         estimate D2E/DX2                !
 ! D98   D(1,3,45,47)          154.0319         estimate D2E/DX2                !
 ! D99   D(48,3,45,43)         177.3731         estimate D2E/DX2                !
 ! D100  D(48,3,45,44)        -123.6328         estimate D2E/DX2                !
 ! D101  D(48,3,45,46)         -36.8094         estimate D2E/DX2                !
 ! D102  D(48,3,45,47)          70.9733         estimate D2E/DX2                !
 ! D103  D(1,3,48,21)           36.539          estimate D2E/DX2                !
 ! D104  D(1,3,48,23)           93.725          estimate D2E/DX2                !
 ! D105  D(1,3,48,46)          -48.0789         estimate D2E/DX2                !
 ! D106  D(1,3,48,49)            0.1701         estimate D2E/DX2                !
 ! D107  D(1,3,48,50)         -157.8476         estimate D2E/DX2                !
 ! D108  D(45,3,48,21)         117.5503         estimate D2E/DX2                !
 ! D109  D(45,3,48,23)         174.7364         estimate D2E/DX2                !
 ! D110  D(45,3,48,46)          32.9325         estimate D2E/DX2                !
 ! D111  D(45,3,48,49)          81.1815         estimate D2E/DX2                !
 ! D112  D(45,3,48,50)         -76.8362         estimate D2E/DX2                !
 ! D113  D(1,4,6,7)            179.0639         estimate D2E/DX2                !
 ! D114  D(1,4,6,8)             40.9626         estimate D2E/DX2                !
 ! D115  D(1,4,6,16)           111.0954         estimate D2E/DX2                !
 ! D116  D(1,4,6,18)          -178.6014         estimate D2E/DX2                !
 ! D117  D(1,4,6,43)           -30.3382         estimate D2E/DX2                !
 ! D118  D(1,4,6,44)           -96.716          estimate D2E/DX2                !
 ! D119  D(9,4,6,7)             95.849          estimate D2E/DX2                !
 ! D120  D(9,4,6,8)            -42.2523         estimate D2E/DX2                !
 ! D121  D(9,4,6,16)            27.8805         estimate D2E/DX2                !
 ! D122  D(9,4,6,18)            98.1837         estimate D2E/DX2                !
 ! D123  D(9,4,6,43)          -113.5531         estimate D2E/DX2                !
 ! D124  D(9,4,6,44)          -179.9309         estimate D2E/DX2                !
 ! D125  D(1,4,9,8)            -42.3736         estimate D2E/DX2                !
 ! D126  D(1,4,9,10)           178.9595         estimate D2E/DX2                !
 ! D127  D(1,4,9,11)            96.3037         estimate D2E/DX2                !
 ! D128  D(1,4,9,15)            27.6823         estimate D2E/DX2                !
 ! D129  D(1,4,9,26)          -112.274          estimate D2E/DX2                !
 ! D130  D(6,4,9,8)             42.3177         estimate D2E/DX2                !
 ! D131  D(6,4,9,10)           -96.3493         estimate D2E/DX2                !
 ! D132  D(6,4,9,11)          -179.005          estimate D2E/DX2                !
 ! D133  D(6,4,9,15)           112.3736         estimate D2E/DX2                !
 ! D134  D(6,4,9,26)           -27.5828         estimate D2E/DX2                !
 ! D135  D(1,5,12,2)            40.4299         estimate D2E/DX2                !
 ! D136  D(1,5,12,11)          -97.9086         estimate D2E/DX2                !
 ! D137  D(1,5,12,14)          109.3813         estimate D2E/DX2                !
 ! D138  D(1,5,12,15)          -30.6378         estimate D2E/DX2                !
 ! D139  D(1,5,12,52)          179.8024         estimate D2E/DX2                !
 ! D140  D(21,5,12,2)          -40.3085         estimate D2E/DX2                !
 ! D141  D(21,5,12,11)        -178.647          estimate D2E/DX2                !
 ! D142  D(21,5,12,14)          28.6429         estimate D2E/DX2                !
 ! D143  D(21,5,12,15)        -111.3762         estimate D2E/DX2                !
 ! D144  D(21,5,12,52)          99.064          estimate D2E/DX2                !
 ! D145  D(12,5,21,2)           40.0946         estimate D2E/DX2                !
 ! D146  D(12,5,21,22)         -57.5574         estimate D2E/DX2                !
 ! D147  D(12,5,21,23)         100.4135         estimate D2E/DX2                !
 ! D148  D(12,5,21,48)         130.0408         estimate D2E/DX2                !
 ! D149  D(12,5,21,49)        -178.9681         estimate D2E/DX2                !
 ! D150  D(12,5,21,63)         -92.5624         estimate D2E/DX2                !
 ! D151  D(4,6,7,13)           -98.3264         estimate D2E/DX2                !
 ! D152  D(8,6,7,13)           -30.8813         estimate D2E/DX2                !
 ! D153  D(16,6,7,13)           40.0458         estimate D2E/DX2                !
 ! D154  D(43,6,7,13)          114.5087         estimate D2E/DX2                !
 ! D155  D(44,6,7,13)          174.509          estimate D2E/DX2                !
 ! D156  D(4,6,8,1)            -40.82           estimate D2E/DX2                !
 ! D157  D(4,6,8,9)             42.5038         estimate D2E/DX2                !
 ! D158  D(7,6,8,1)           -108.7048         estimate D2E/DX2                !
 ! D159  D(7,6,8,9)            -25.381          estimate D2E/DX2                !
 ! D160  D(16,6,8,1)          -178.7348         estimate D2E/DX2                !
 ! D161  D(16,6,8,9)           -95.411          estimate D2E/DX2                !
 ! D162  D(18,6,8,1)          -179.5158         estimate D2E/DX2                !
 ! D163  D(18,6,8,9)           -96.192          estimate D2E/DX2                !
 ! D164  D(43,6,8,1)            93.9616         estimate D2E/DX2                !
 ! D165  D(43,6,8,9)           177.2854         estimate D2E/DX2                !
 ! D166  D(44,6,8,1)            33.623          estimate D2E/DX2                !
 ! D167  D(44,6,8,9)           116.9468         estimate D2E/DX2                !
 ! D168  D(4,6,16,13)           27.8496         estimate D2E/DX2                !
 ! D169  D(7,6,16,13)          -40.3595         estimate D2E/DX2                !
 ! D170  D(8,6,16,13)           96.9022         estimate D2E/DX2                !
 ! D171  D(43,6,16,13)        -179.8257         estimate D2E/DX2                !
 ! D172  D(44,6,16,13)        -113.2944         estimate D2E/DX2                !
 ! D173  D(4,6,18,19)           81.2799         estimate D2E/DX2                !
 ! D174  D(4,6,18,20)          166.9175         estimate D2E/DX2                !
 ! D175  D(4,6,18,40)           -8.4203         estimate D2E/DX2                !
 ! D176  D(4,6,18,42)          126.6421         estimate D2E/DX2                !
 ! D177  D(4,6,18,62)         -112.5078         estimate D2E/DX2                !
 ! D178  D(8,6,18,19)         -158.1301         estimate D2E/DX2                !
 ! D179  D(8,6,18,20)          -72.4925         estimate D2E/DX2                !
 ! D180  D(8,6,18,40)          112.1698         estimate D2E/DX2                !
 ! D181  D(8,6,18,42)         -112.7678         estimate D2E/DX2                !
 ! D182  D(8,6,18,62)            8.0822         estimate D2E/DX2                !
 ! D183  D(43,6,18,19)         -75.6734         estimate D2E/DX2                !
 ! D184  D(43,6,18,20)           9.9642         estimate D2E/DX2                !
 ! D185  D(43,6,18,40)        -165.3736         estimate D2E/DX2                !
 ! D186  D(43,6,18,42)         -30.3112         estimate D2E/DX2                !
 ! D187  D(43,6,18,62)          90.5389         estimate D2E/DX2                !
 ! D188  D(44,6,18,19)          -0.5908         estimate D2E/DX2                !
 ! D189  D(44,6,18,20)          85.0468         estimate D2E/DX2                !
 ! D190  D(44,6,18,40)         -90.2909         estimate D2E/DX2                !
 ! D191  D(44,6,18,42)          44.7715         estimate D2E/DX2                !
 ! D192  D(44,6,18,62)         165.6215         estimate D2E/DX2                !
 ! D193  D(4,6,43,42)         -122.1289         estimate D2E/DX2                !
 ! D194  D(4,6,43,45)          -28.0306         estimate D2E/DX2                !
 ! D195  D(7,6,43,42)           11.7188         estimate D2E/DX2                !
 ! D196  D(7,6,43,45)          105.8171         estimate D2E/DX2                !
 ! D197  D(8,6,43,42)          167.635          estimate D2E/DX2                !
 ! D198  D(8,6,43,45)          -98.2667         estimate D2E/DX2                !
 ! D199  D(16,6,43,42)          84.0992         estimate D2E/DX2                !
 ! D200  D(16,6,43,45)         178.1975         estimate D2E/DX2                !
 ! D201  D(18,6,43,42)          34.4184         estimate D2E/DX2                !
 ! D202  D(18,6,43,45)         128.5167         estimate D2E/DX2                !
 ! D203  D(44,6,43,42)         -51.1652         estimate D2E/DX2                !
 ! D204  D(44,6,43,45)          42.9331         estimate D2E/DX2                !
 ! D205  D(4,6,44,42)         -178.4781         estimate D2E/DX2                !
 ! D206  D(4,6,44,45)           90.071          estimate D2E/DX2                !
 ! D207  D(7,6,44,42)          -96.6181         estimate D2E/DX2                !
 ! D208  D(7,6,44,45)          171.9309         estimate D2E/DX2                !
 ! D209  D(8,6,44,42)          109.3794         estimate D2E/DX2                !
 ! D210  D(8,6,44,45)           17.9285         estimate D2E/DX2                !
 ! D211  D(16,6,44,42)         -24.8915         estimate D2E/DX2                !
 ! D212  D(16,6,44,45)        -116.3425         estimate D2E/DX2                !
 ! D213  D(18,6,44,42)         -47.0657         estimate D2E/DX2                !
 ! D214  D(18,6,44,45)        -138.5167         estimate D2E/DX2                !
 ! D215  D(43,6,44,42)          46.306          estimate D2E/DX2                !
 ! D216  D(43,6,44,45)         -45.145          estimate D2E/DX2                !
 ! D217  D(6,7,13,10)           98.0534         estimate D2E/DX2                !
 ! D218  D(6,7,13,16)          -40.5098         estimate D2E/DX2                !
 ! D219  D(6,7,13,26)           30.6915         estimate D2E/DX2                !
 ! D220  D(6,7,13,37)         -179.8483         estimate D2E/DX2                !
 ! D221  D(6,7,13,38)         -109.4619         estimate D2E/DX2                !
 ! D222  D(18,7,13,10)         178.7207         estimate D2E/DX2                !
 ! D223  D(18,7,13,16)          40.1575         estimate D2E/DX2                !
 ! D224  D(18,7,13,26)         111.3588         estimate D2E/DX2                !
 ! D225  D(18,7,13,37)         -99.1811         estimate D2E/DX2                !
 ! D226  D(18,7,13,38)         -28.7947         estimate D2E/DX2                !
 ! D227  D(13,7,18,16)         -39.9252         estimate D2E/DX2                !
 ! D228  D(13,7,18,19)         179.1128         estimate D2E/DX2                !
 ! D229  D(13,7,18,20)        -100.1863         estimate D2E/DX2                !
 ! D230  D(13,7,18,40)          92.6874         estimate D2E/DX2                !
 ! D231  D(13,7,18,42)        -130.0583         estimate D2E/DX2                !
 ! D232  D(13,7,18,62)          57.885          estimate D2E/DX2                !
 ! D233  D(1,8,9,4)             42.175          estimate D2E/DX2                !
 ! D234  D(1,8,9,10)           112.7522         estimate D2E/DX2                !
 ! D235  D(1,8,9,11)           -28.413          estimate D2E/DX2                !
 ! D236  D(1,8,9,15)           -95.84           estimate D2E/DX2                !
 ! D237  D(1,8,9,26)          -179.8203         estimate D2E/DX2                !
 ! D238  D(6,8,9,4)            -42.0925         estimate D2E/DX2                !
 ! D239  D(6,8,9,10)            28.4847         estimate D2E/DX2                !
 ! D240  D(6,8,9,11)          -112.6805         estimate D2E/DX2                !
 ! D241  D(6,8,9,15)           179.8925         estimate D2E/DX2                !
 ! D242  D(6,8,9,26)            95.9122         estimate D2E/DX2                !
 ! D243  D(4,9,10,13)           94.9207         estimate D2E/DX2                !
 ! D244  D(4,9,10,24)          179.5681         estimate D2E/DX2                !
 ! D245  D(8,9,10,13)           25.934          estimate D2E/DX2                !
 ! D246  D(8,9,10,24)          110.5815         estimate D2E/DX2                !
 ! D247  D(11,9,10,13)         179.7751         estimate D2E/DX2                !
 ! D248  D(11,9,10,24)         -95.5775         estimate D2E/DX2                !
 ! D249  D(15,9,10,13)        -113.0478         estimate D2E/DX2                !
 ! D250  D(15,9,10,24)         -28.4003         estimate D2E/DX2                !
 ! D251  D(26,9,10,13)         -42.9449         estimate D2E/DX2                !
 ! D252  D(26,9,10,24)          41.7026         estimate D2E/DX2                !
 ! D253  D(4,9,11,12)          -95.0808         estimate D2E/DX2                !
 ! D254  D(4,9,11,27)         -179.3669         estimate D2E/DX2                !
 ! D255  D(8,9,11,12)          -26.0874         estimate D2E/DX2                !
 ! D256  D(8,9,11,27)         -110.3734         estimate D2E/DX2                !
 ! D257  D(10,9,11,12)        -179.9214         estimate D2E/DX2                !
 ! D258  D(10,9,11,27)          95.7926         estimate D2E/DX2                !
 ! D259  D(15,9,11,12)          42.8698         estimate D2E/DX2                !
 ! D260  D(15,9,11,27)         -41.4162         estimate D2E/DX2                !
 ! D261  D(26,9,11,12)         112.8247         estimate D2E/DX2                !
 ! D262  D(26,9,11,27)          28.5387         estimate D2E/DX2                !
 ! D263  D(4,9,15,12)           27.5492         estimate D2E/DX2                !
 ! D264  D(4,9,15,27)          111.9409         estimate D2E/DX2                !
 ! D265  D(8,9,15,12)           96.2351         estimate D2E/DX2                !
 ! D266  D(8,9,15,27)         -179.3732         estimate D2E/DX2                !
 ! D267  D(10,9,15,12)        -111.1624         estimate D2E/DX2                !
 ! D268  D(10,9,15,27)         -26.7707         estimate D2E/DX2                !
 ! D269  D(11,9,15,12)         -42.9042         estimate D2E/DX2                !
 ! D270  D(11,9,15,27)          41.4876         estimate D2E/DX2                !
 ! D271  D(26,9,15,12)        -179.7359         estimate D2E/DX2                !
 ! D272  D(26,9,15,27)         -95.3441         estimate D2E/DX2                !
 ! D273  D(4,9,26,13)          -27.5638         estimate D2E/DX2                !
 ! D274  D(4,9,26,24)         -112.3649         estimate D2E/DX2                !
 ! D275  D(8,9,26,13)          -96.141          estimate D2E/DX2                !
 ! D276  D(8,9,26,24)          179.0579         estimate D2E/DX2                !
 ! D277  D(10,9,26,13)          42.9997         estimate D2E/DX2                !
 ! D278  D(10,9,26,24)         -41.8014         estimate D2E/DX2                !
 ! D279  D(11,9,26,13)         111.2979         estimate D2E/DX2                !
 ! D280  D(11,9,26,24)          26.4968         estimate D2E/DX2                !
 ! D281  D(15,9,26,13)         179.6935         estimate D2E/DX2                !
 ! D282  D(15,9,26,24)          94.8923         estimate D2E/DX2                !
 ! D283  D(9,10,13,7)          -95.1128         estimate D2E/DX2                !
 ! D284  D(9,10,13,16)         -25.2241         estimate D2E/DX2                !
 ! D285  D(9,10,13,26)          43.0461         estimate D2E/DX2                !
 ! D286  D(9,10,13,37)        -178.7552         estimate D2E/DX2                !
 ! D287  D(9,10,13,38)         112.2036         estimate D2E/DX2                !
 ! D288  D(24,10,13,7)        -178.9043         estimate D2E/DX2                !
 ! D289  D(24,10,13,16)       -109.0155         estimate D2E/DX2                !
 ! D290  D(24,10,13,26)        -40.7454         estimate D2E/DX2                !
 ! D291  D(24,10,13,37)         97.4533         estimate D2E/DX2                !
 ! D292  D(24,10,13,38)         28.4121         estimate D2E/DX2                !
 ! D293  D(9,10,24,17)        -115.3035         estimate D2E/DX2                !
 ! D294  D(9,10,24,25)        -178.0007         estimate D2E/DX2                !
 ! D295  D(9,10,24,26)         -42.1614         estimate D2E/DX2                !
 ! D296  D(9,10,24,28)          96.9853         estimate D2E/DX2                !
 ! D297  D(9,10,24,29)          26.1338         estimate D2E/DX2                !
 ! D298  D(13,10,24,17)        -32.0481         estimate D2E/DX2                !
 ! D299  D(13,10,24,25)        -94.7453         estimate D2E/DX2                !
 ! D300  D(13,10,24,26)         41.0941         estimate D2E/DX2                !
 ! D301  D(13,10,24,28)       -179.7593         estimate D2E/DX2                !
 ! D302  D(13,10,24,29)        109.3892         estimate D2E/DX2                !
 ! D303  D(9,11,12,2)           25.2672         estimate D2E/DX2                !
 ! D304  D(9,11,12,5)           94.9383         estimate D2E/DX2                !
 ! D305  D(9,11,12,14)        -112.2691         estimate D2E/DX2                !
 ! D306  D(9,11,12,15)         -42.9752         estimate D2E/DX2                !
 ! D307  D(9,11,12,52)         178.6576         estimate D2E/DX2                !
 ! D308  D(27,11,12,2)         109.4066         estimate D2E/DX2                !
 ! D309  D(27,11,12,5)         179.0777         estimate D2E/DX2                !
 ! D310  D(27,11,12,14)        -28.1297         estimate D2E/DX2                !
 ! D311  D(27,11,12,15)         41.1641         estimate D2E/DX2                !
 ! D312  D(27,11,12,52)        -97.203          estimate D2E/DX2                !
 ! D313  D(9,11,27,15)          41.8854         estimate D2E/DX2                !
 ! D314  D(9,11,27,28)         -96.9856         estimate D2E/DX2                !
 ! D315  D(9,11,27,29)         -26.25           estimate D2E/DX2                !
 ! D316  D(9,11,27,55)         178.2959         estimate D2E/DX2                !
 ! D317  D(9,11,27,56)         114.7601         estimate D2E/DX2                !
 ! D318  D(12,11,27,15)        -41.5286         estimate D2E/DX2                !
 ! D319  D(12,11,27,28)        179.6004         estimate D2E/DX2                !
 ! D320  D(12,11,27,29)       -109.664          estimate D2E/DX2                !
 ! D321  D(12,11,27,55)         94.8819         estimate D2E/DX2                !
 ! D322  D(12,11,27,56)         31.3461         estimate D2E/DX2                !
 ! D323  D(2,12,14,51)         103.0913         estimate D2E/DX2                !
 ! D324  D(2,12,14,54)         179.3112         estimate D2E/DX2                !
 ! D325  D(5,12,14,51)          34.2078         estimate D2E/DX2                !
 ! D326  D(5,12,14,54)         110.4276         estimate D2E/DX2                !
 ! D327  D(11,12,14,51)       -105.4872         estimate D2E/DX2                !
 ! D328  D(11,12,14,54)        -29.2674         estimate D2E/DX2                !
 ! D329  D(15,12,14,51)       -173.3272         estimate D2E/DX2                !
 ! D330  D(15,12,14,54)        -97.1074         estimate D2E/DX2                !
 ! D331  D(52,12,14,51)        -36.5564         estimate D2E/DX2                !
 ! D332  D(52,12,14,54)         39.6634         estimate D2E/DX2                !
 ! D333  D(2,12,15,9)          -96.0399         estimate D2E/DX2                !
 ! D334  D(2,12,15,27)         179.8065         estimate D2E/DX2                !
 ! D335  D(5,12,15,9)          -25.4439         estimate D2E/DX2                !
 ! D336  D(5,12,15,27)        -109.5976         estimate D2E/DX2                !
 ! D337  D(11,12,15,9)          42.9266         estimate D2E/DX2                !
 ! D338  D(11,12,15,27)        -41.227          estimate D2E/DX2                !
 ! D339  D(14,12,15,9)        -178.4955         estimate D2E/DX2                !
 ! D340  D(14,12,15,27)         97.3508         estimate D2E/DX2                !
 ! D341  D(52,12,15,9)         109.8351         estimate D2E/DX2                !
 ! D342  D(52,12,15,27)         25.6814         estimate D2E/DX2                !
 ! D343  D(2,12,52,51)         -31.8927         estimate D2E/DX2                !
 ! D344  D(2,12,52,54)        -108.4491         estimate D2E/DX2                !
 ! D345  D(5,12,52,51)        -101.367          estimate D2E/DX2                !
 ! D346  D(5,12,52,54)        -177.9234         estimate D2E/DX2                !
 ! D347  D(11,12,52,51)        175.28           estimate D2E/DX2                !
 ! D348  D(11,12,52,54)         98.7236         estimate D2E/DX2                !
 ! D349  D(14,12,52,51)         36.8064         estimate D2E/DX2                !
 ! D350  D(14,12,52,54)        -39.75           estimate D2E/DX2                !
 ! D351  D(15,12,52,51)        109.096          estimate D2E/DX2                !
 ! D352  D(15,12,52,54)         32.5396         estimate D2E/DX2                !
 ! D353  D(7,13,16,6)           40.4636         estimate D2E/DX2                !
 ! D354  D(7,13,16,18)         -39.6874         estimate D2E/DX2                !
 ! D355  D(10,13,16,6)         -29.7626         estimate D2E/DX2                !
 ! D356  D(10,13,16,18)       -109.9136         estimate D2E/DX2                !
 ! D357  D(26,13,16,6)         -96.8255         estimate D2E/DX2                !
 ! D358  D(26,13,16,18)       -176.9764         estimate D2E/DX2                !
 ! D359  D(37,13,16,6)         110.4142         estimate D2E/DX2                !
 ! D360  D(37,13,16,18)         30.2632         estimate D2E/DX2                !
 ! D361  D(38,13,16,6)         179.0813         estimate D2E/DX2                !
 ! D362  D(38,13,16,18)         98.9303         estimate D2E/DX2                !
 ! D363  D(7,13,26,9)           25.4986         estimate D2E/DX2                !
 ! D364  D(7,13,26,24)         109.33           estimate D2E/DX2                !
 ! D365  D(10,13,26,9)         -42.9989         estimate D2E/DX2                !
 ! D366  D(10,13,26,24)         40.8324         estimate D2E/DX2                !
 ! D367  D(16,13,26,9)          96.2418         estimate D2E/DX2                !
 ! D368  D(16,13,26,24)       -179.9268         estimate D2E/DX2                !
 ! D369  D(37,13,26,9)        -109.8196         estimate D2E/DX2                !
 ! D370  D(37,13,26,24)        -25.9882         estimate D2E/DX2                !
 ! D371  D(38,13,26,9)         178.6111         estimate D2E/DX2                !
 ! D372  D(38,13,26,24)        -97.5575         estimate D2E/DX2                !
 ! D373  D(7,13,37,36)         177.8736         estimate D2E/DX2                !
 ! D374  D(7,13,37,39)         101.3514         estimate D2E/DX2                !
 ! D375  D(10,13,37,36)        -98.577          estimate D2E/DX2                !
 ! D376  D(10,13,37,39)       -175.0993         estimate D2E/DX2                !
 ! D377  D(16,13,37,36)        108.2836         estimate D2E/DX2                !
 ! D378  D(16,13,37,39)         31.7613         estimate D2E/DX2                !
 ! D379  D(26,13,37,36)        -32.3951         estimate D2E/DX2                !
 ! D380  D(26,13,37,39)       -108.9174         estimate D2E/DX2                !
 ! D381  D(38,13,37,36)         39.6991         estimate D2E/DX2                !
 ! D382  D(38,13,37,39)        -36.8231         estimate D2E/DX2                !
 ! D383  D(7,13,38,36)        -110.3324         estimate D2E/DX2                !
 ! D384  D(7,13,38,39)         -34.1224         estimate D2E/DX2                !
 ! D385  D(10,13,38,36)         29.177          estimate D2E/DX2                !
 ! D386  D(10,13,38,39)        105.3871         estimate D2E/DX2                !
 ! D387  D(16,13,38,36)       -179.3026         estimate D2E/DX2                !
 ! D388  D(16,13,38,39)       -103.0925         estimate D2E/DX2                !
 ! D389  D(26,13,38,36)         96.9762         estimate D2E/DX2                !
[...]
 177106,-0.00082867,-0.00072959,0.00122491,0.00014165,0.00217945,-0.000
 12516,0.00005018,-0.00006223,0.00022053,-0.00020460,0.00008819,-0.0000
 2798,-0.00000886,0.00005988,0.00002143,-0.00012095,0.00004954,-0.00006
 907,0.00007922,-0.00005777,-0.00002364,-0.00001886,0.00003652,0.000006
 01,-0.00000639,0.00000496,-0.00009229,0.00002657,-0.00015352,0.0000199
 7,0.00000321,0.00001545,0.00004828,-0.00001445,0.00006218,-0.00004320,
 0.00005048,-0.00015740,0.00001689,-0.00002022,0.00003430,-0.00001129,-
 0.00000245,0.00002269,-0.00008809,-0.00004360,-0.00005334,-0.00000577,
 0.00001113,0.00005350,-0.00000555,0.00000267,0.00001017,-0.00007891,-0
 .00003777,0.00005514,0.00019626,0.00005323,0.00002726,0.00041988,-0.00
 033210,-0.00004200,-0.00108829,-0.00022475,-0.00038728,-0.00004067,-0.
 00059519,0.00951771,-0.00036434,0.00107703,0.00140212,0.00028033,-0.00
 674119,-0.01539203,-0.00055561,0.00038721,0.00155642,-0.00017275,-0.00
 024606,-0.00004692,0.00002359,-0.00004416,0.00005801,-0.00000734,-0.00
 001656,0.00003754,-0.00001668,-0.00004870,0.00003384,0.00004143,0.0000
 3338,0.00000256,-0.02030805,0.05663208,0.00009706,0.00006542,-0.000066
 41,-0.00011257,0.00006291,0.00004292,0.00000565,-0.00006477,0.00003438
 ,-0.00006796,0.00004635,-0.00004005,-0.00013091,0.00001636,-0.00003443
 ,0.00000179,-0.00008712,0.00013283,-0.00003138,0.00007534,-0.00008270,
 -0.00007900,0.00000662,-0.00002358,-0.00011798,0.00003076,0.00012712,0
 .00002611,0.00007869,-0.00019723,-0.00027816,-0.00011543,0.00006492,0.
 00027855,0.00035147,-0.00073928,-0.00020424,-0.00007894,0.00027633,0.0
 0059890,-0.00004756,-0.00006802,-0.00013908,0.00029327,0.00005842,0.00
 001084,0.00002179,-0.00011784,-0.00040077,-0.00001519,0.00004925,0.000
 02382,0.00004474,0.00012466,-0.00007550,-0.00005368,0.00010115,-0.0000
 0713,0.00000689,-0.00000606,-0.00002069,-0.00013732,-0.00006401,0.0002
 0593,0.00003850,-0.00004501,0.00003794,-0.00000651,-0.00000343,0.00080
 049,0.00020472,0.00018518,0.00003825,0.00020985,-0.00009872,-0.0001295
 0,0.00003683,0.00014040,0.00062948,-0.00442142,-0.00017469,0.00309448,
 0.00166103,0.00031973,0.00044624,0.00068188,-0.00040131,0.01640825,-0.
 01555418,-0.01991962,-0.00229939,-0.00858028,-0.00523447,0.00041307,0.
 00028747,0.00089492,-0.00128823,0.00043989,-0.00075295,-0.00548148,0.0
 0404385,0.00010167,-0.00011977,0.00007450,-0.00009690,0.00040798,-0.00
 000162,0.00000870,-0.00002319,-0.00002687,0.00002560,0.00001024,-0.000
 05281,0.00002747,-0.00001794,0.00006228,-0.00006134,-0.00001466,-0.000
 01173,0.00004340,-0.00000019,-0.00000695,0.00000492,-0.00009649,-0.000
 00867,-0.00012815,0.00005312,0.00003674,0.00002296,0.00013931,-0.00006
 912,0.00009310,-0.00035024,0.00021241,-0.00025437,0.00012371,-0.000108
 66,0.00008265,0.00002953,-0.00000839,0.00000925,-0.00021121,0.00014843
 ,-0.00002449,0.00015690,0.00005152,-0.00008006,0.00005264,0.00001030,-
 0.00003424,-0.00043326,0.00004476,-0.00003822,0.00030819,-0.00005569,-
 0.00024561,0.00093979,-0.00012014,0.00009130,-0.00062358,0.00089439,-0
 .00011567,0.00211431,0.00706423,-0.01076046,0.00413669,-0.00077754,-0.
 00556391,-0.04264336,-0.01148169,-0.14971767,-0.01015054,0.00417409,0.
 00050545,0.00008892,-0.00013297,0.00004284,0.00009605,0.00001131,-0.00
 003583,-0.00000834,-0.00001139,0.00002739,-0.00000154,-0.00006659,0.00
 004100,0.00012266,0.00000018,-0.00005907,0.03446889,0.01871237,0.19035
 280,0.00001153,0.00001088,-0.00001412,-0.00001780,0.00000662,0.0000210
 1,0.00000181,-0.00000344,0.00000216,-0.00000819,-0.00000150,-0.0000098
 4,-0.00002099,0.00000656,-0.00000792,0.00000085,-0.00000671,0.00000489
 ,0.,0.00000508,-0.00000469,-0.00000150,0.00000047,0.00000200,-0.000004
 27,-0.00000486,0.00000483,0.00001329,-0.00001462,0.00001868,-0.0000057
 9,-0.00012744,-0.00005953,0.00007250,0.00006049,-0.00009169,-0.0000170
 9,-0.00002247,-0.00000815,0.00001407,-0.00003875,0.00001029,-0.0000249
 8,0.00003965,-0.00001186,0.00000701,0.00000815,-0.00000278,0.00005307,
 0.00004411,0.00006342,0.00000027,-0.00000824,0.00000967,-0.00000008,-0
 .00000372,-0.00000016,0.00000082,-0.00000435,0.00000625,0.00000843,0.0
 0000230,-0.00000813,0.00002419,0.00000231,-0.00000832,0.00000062,-0.00
 000887,-0.00000349,-0.00005887,0.00008296,0.00015717,0.00005791,0.0000
 2484,-0.00008948,0.00007825,0.00003532,0.00000654,-0.00041677,0.000194
 34,0.00005843,0.00018814,0.00029450,0.00013339,-0.00109536,-0.00061404
 ,-0.00070104,-0.00673876,-0.00213663,0.00426815,-0.08590913,-0.0180065
 1,0.11410577,0.00036940,0.00010364,0.00042696,-0.00002339,-0.00044159,
 -0.00026114,-0.00003640,0.00022032,0.00001786,0.00000712,-0.00000216,0
 .00000370,-0.00000927,-0.00002852,-0.00000974,0.00000033,0.00000645,-0
 .00000743,0.00000498,0.00000435,-0.00000147,0.00000520,0.00000217,-0.0
 0000906,0.00000091,0.00000157,0.00000146,0.00000270,-0.00000480,0.0000
 0667,-0.00001388,0.00001270,-0.00000332,0.00000502,-0.00000086,0.00000
 447,0.00001126,-0.00000558,0.00000782,-0.00003578,0.00001489,-0.000015
 00,0.00001247,-0.00001155,0.00000657,0.00000752,0.00000223,-0.00000479
 ,-0.00003235,0.00001455,0.00000973,0.00001805,0.00001097,-0.00000812,0
 .00001095,0.00000421,-0.00001062,-0.00006274,0.00002878,0.00005151,0.0
 0005564,-0.00002816,-0.00000940,-0.00014293,-0.00000095,-0.00004510,0.
 00030768,-0.00011271,-0.00020121,0.00003122,-0.00062763,-0.00004755,0.
 00012595,0.00071512,-0.00048059,0.00124354,0.00068994,-0.00061545,-0.0
 0054992,0.00006707,-0.00002250,0.00001479,-0.00000535,0.00003206,0.000
 00421,-0.00000878,-0.00000473,0.00000644,0.00000122,-0.00000403,-0.000
 00004,-0.00000106,-0.00000022,0.00001668,0.00000265,-0.00001152,0.0003
 0050,0.00181362,0.00058695,0.09314293,-0.00000821,-0.00000210,-0.00000
 629,0.00001100,-0.00000535,-0.00000185,-0.00000026,0.00000650,-0.00000
 075,0.00000532,-0.00000335,0.00000480,0.00001745,-0.00001268,0.0000005
 1,0.00000494,0.00000605,-0.00000395,-0.00000090,-0.00000945,0.00000727
 ,-0.00000181,-0.00000334,0.00000020,0.00005982,0.00003020,-0.00000457,
 0.00000247,0.00004316,-0.00001360,0.00000021,-0.00013273,-0.00010425,-
 0.00002887,0.00000881,0.00000831,0.00005020,0.00001948,-0.00002396,0.0
 0001612,0.00002823,0.00002615,0.00004866,-0.00001625,-0.00002750,-0.00
 000503,-0.00000108,0.00001111,-0.00008336,0.00003889,0.00005653,0.0000
 0015,-0.00000201,-0.00002227,0.00000869,0.00000709,-0.00000907,0.00000
 103,-0.00000474,0.00000348,-0.00000951,-0.00000438,-0.00000772,-0.0000
 1223,-0.00000033,0.00000757,-0.00000764,0.00000313,0.00000264,0.000087
 01,0.00013103,-0.00003024,0.00007015,-0.00002684,-0.00001965,-0.000058
 73,-0.00001415,0.00002431,-0.00001127,-0.00045811,0.00074665,0.0000264
 1,0.00031781,-0.00022480,0.00015938,-0.00008077,0.00026892,-0.00026333
 ,-0.00071731,0.00120921,-0.01179654,-0.01487988,0.01381390,0.00005630,
 -0.00013651,-0.00011300,-0.00008082,-0.00001391,-0.00012132,-0.0000838
 7,0.00005761,-0.00001522,0.00002718,-0.00002133,0.00003112,-0.00004199
 ,0.00003512,-0.00000365,-0.00000689,-0.00000589,-0.00000512,0.00000670
 ,0.00000151,-0.00000119,-0.00001371,0.00000213,-0.00000080,0.00000040,
 0.00000075,-0.00000245,0.00000790,-0.00000693,0.00000953,-0.00000744,0
 .00000641,0.00001525,-0.00000196,-0.00000301,-0.00000043,-0.00001060,0
 .00000556,-0.00000392,0.00002555,-0.00002577,0.00001546,-0.00001347,0.
 00000951,-0.00000628,0.00000315,0.00000450,-0.00000555,0.00001696,-0.0
 0001278,0.00001552,-0.00000809,-0.00000200,0.00000459,0.00000138,0.000
 00269,-0.00000543,0.00005167,-0.00002949,-0.00004169,-0.00005782,-0.00
 001905,-0.00001496,-0.00008548,0.00010878,0.00007283,0.00004505,0.0000
 8481,0.00034928,0.00067608,0.00075500,-0.00047248,-0.00024582,-0.00187
 710,0.00092048,-0.00587815,-0.00194092,0.00768039,0.00088497,-0.000188
 13,0.00029475,0.00003642,-0.00000141,0.00004091,-0.00003523,0.00002277
 ,-0.00001211,0.00000946,0.00000276,-0.00000904,0.00000029,0.00000273,-
 0.00000303,-0.00000948,0.00000133,0.00001111,-0.00148190,-0.00138567,-
 0.00089258,0.01807551,0.02004270,0.00001008,0.00001118,-0.00001034,-0.
 00002275,0.00000439,0.00002574,0.00000800,-0.00000675,0.00000312,-0.00
 001502,-0.00000069,-0.00001069,-0.00001682,0.00000544,-0.00000176,-0.0
 0001011,-0.00000999,0.00001873,-0.00000033,0.00000703,-0.00001093,-0.0
 0000636,0.00000445,0.00000070,0.00001244,-0.00000872,0.00004017,0.0000
 2548,-0.00000340,-0.00003747,-0.00000826,-0.00004348,-0.00000116,0.000
 06691,0.00007394,-0.00004101,-0.00002234,-0.00000426,0.00001491,-0.000
 01335,-0.00004455,-0.00000867,-0.00007786,-0.00002921,0.00002088,0.000
 00145,0.00000352,-0.00001431,-0.00003312,-0.00000696,0.00001526,0.0000
 0306,0.00000247,0.00001323,-0.00000734,-0.00000688,0.00000873,-0.00000
 010,-0.00000054,0.00000176,0.00000958,-0.00000036,-0.00000404,0.000034
 47,0.00000055,-0.00001351,0.00001145,-0.00000983,-0.00000334,-0.000010
 75,0.00016082,0.00005476,0.00005494,-0.00001783,-0.00003493,0.00004032
 ,0.00001470,0.00001473,-0.00048953,-0.00028739,-0.00007638,0.00028697,
 0.00018111,0.00007813,0.00028528,0.00005319,-0.00009418,-0.00472345,-0
 .00175843,0.00140594,0.12195824,0.02457155,-0.18396326,0.00027771,-0.0
 0025381,0.00009073,-0.00010406,-0.00030143,-0.00017709,-0.00019708,0.0
 0013332,-0.00006006,-0.00000283,0.00000227,-0.00000322,0.00004200,-0.0
 0000111,0.00000411,-0.00000334,-0.00000335,0.00000384,0.00000211,-0.00
 000469,0.00000434,-0.00000311,0.00000789,-0.00000717,-0.00000114,-0.00
 000153,0.00000551,0.00000043,-0.00000042,-0.00000011,-0.00000977,0.000
 00385,-0.00001527,0.00000693,-0.00000055,0.00000252,0.00001571,-0.0000
 0298,0.00001120,-0.00004152,0.00002355,-0.00002499,0.00001727,-0.00001
 360,0.00000999,0.00000298,-0.00000079,-0.00000022,-0.00004392,0.000012
 89,-0.00000822,0.00001654,0.00001161,-0.00000155,0.00000690,0.00000117
 ,-0.00000370,-0.00005460,0.00004847,0.00008323,0.00014256,0.00001779,-
 0.00003146,-0.00015686,-0.00002729,-0.00000461,0.00024597,-0.00038492,
 -0.00021609,0.00002705,-0.00031763,0.00012443,0.00026446,0.00243996,-0
 .00111697,0.00106995,0.00028380,-0.00172856,-0.00013388,-0.00049259,0.
 00038275,0.00000892,0.00006572,-0.00004354,0.00001009,-0.00001486,-0.0
 0001012,-0.00000094,-0.00000199,0.00000312,-0.00000055,-0.00000716,0.0
 0000445,0.00001486,0.00000070,-0.00001363,-0.00088699,-0.00048325,0.00
 003941,-0.11581604,-0.02295103,0.18606552,0.00007330,-0.00000186,-0.00
 000217,-0.00004986,0.00006736,0.00001091,-0.00000997,-0.00002712,0.000
 00436,-0.00003002,0.00001035,-0.00002186,-0.00005892,0.00001309,-0.000
 04793,-0.00002299,-0.00002840,0.00003829,0.00001688,0.00000826,-0.0000
 2843,-0.00002239,0.00002099,-0.00001544,0.00016265,-0.00006024,0.00003
 340,0.00010261,-0.00015865,-0.00009938,-0.00001727,-0.00006063,-0.0000
 7994,0.00006423,-0.00009030,0.00006628,0.00000071,-0.00002568,0.000012
 52,0.00013803,0.00007456,-0.00010517,-0.00010156,0.00003549,0.00000050
 ,0.00002837,0.00001870,-0.00002298,-0.00020628,-0.00053528,-0.00045942
 ,-0.00001855,-0.00000528,0.00003622,-0.00000899,-0.00002007,0.00001652
 ,-0.00000070,0.00000619,0.00000654,-0.00004905,-0.00004351,-0.00002783
 ,0.00010477,0.00002204,-0.00003772,-0.00000349,0.00000104,-0.00000778,
 0.00027948,-0.00004637,-0.00016796,-0.00008096,0.00035292,0.00024293,0
 .00027655,0.00009729,0.00002280,0.00050578,-0.00080968,0.00248408,0.00
 048850,-0.00118202,-0.00005780,0.00061044,0.00105178,0.00233456,-0.052
 73181,-0.02510888,0.04654361,-0.00102380,0.00238685,-0.00524591,-0.001
 01557,0.00149266,0.00064819,-0.00413639,0.00169355,-0.00036066,-0.0018
 9237,-0.00159230,-0.00173919,-0.00011268,0.00004948,-0.00006114,0.0002
 2247,0.00005989,-0.00009803,-0.00001641,-0.00003155,-0.00002784,-0.000
 04044,0.00005697,0.00002485,0.00008363,0.00000977,-0.00003877,-0.00000
 156,-0.00000360,0.00001111,0.00000336,-0.00001935,0.00003404,0.0000023
 8,0.00000934,-0.00001669,0.00001648,0.00001032,0.00000384,0.00004445,-
 0.00002510,0.00002066,-0.00013574,0.00007127,-0.00006460,0.00004593,-0
 .00003804,0.00003139,0.00000684,-0.00000677,0.00000332,-0.00005168,0.0
 0007262,-0.00000287,0.00005835,0.00001443,-0.00004083,0.00001531,-0.00
 000056,-0.00000901,-0.00024957,0.00000437,0.00004118,0.00005906,0.0000
 3097,-0.00003531,-0.00024858,0.00024977,-0.00024037,0.00039923,-0.0002
 0154,0.00018034,0.00025362,-0.00001455,-0.00138466,0.00049215,0.002013
 59,-0.00092400,-0.00231381,-0.00727394,0.00289940,0.00046207,0.0004656
 0,0.00033258,0.00015760,-0.00001160,0.00008677,0.00010145,-0.00003221,
 0.00000992,-0.00001120,-0.00000429,0.00000796,-0.00000045,-0.00000627,
 0.00001785,0.00005444,0.00000413,-0.00003488,0.00214359,0.00348561,-0.
 00139441,-0.00101196,-0.00014355,-0.00206695,0.05820036,-0.00002345,-0
 .00001062,0.00002628,0.00001276,0.00000837,-0.00001965,-0.00000377,0.0
 0000546,-0.00000235,0.00001023,-0.00000643,0.00000449,0.00001548,0.000
 00145,-0.00000369,-0.00000476,0.00001269,-0.00003012,0.00000903,-0.000
 01955,0.00003532,0.00001401,-0.00001212,0.00000504,-0.00008524,0.00005
 544,-0.00000572,-0.00006540,0.00002312,0.00009813,-0.00003023,-0.00001
 553,-0.00009597,-0.00001758,0.00002387,-0.00006134,-0.00024431,-0.0000
 1732,-0.00004449,0.00004347,0.00001158,0.00000740,-0.00000685,0.000095
 77,-0.00004944,0.00003334,-0.00001582,0.00001668,-0.00034579,0.0000097
 7,-0.00053303,-0.00001955,-0.00002581,-0.00000931,0.00001321,0.0000064
 9,-0.00001457,0.00000947,0.00000103,-0.00000019,-0.00001192,0.00000859
 ,0.00000644,-0.00000404,-0.00000068,0.00000384,-0.00000578,0.00000462,
 0.00000166,0.00004632,0.00013314,0.00034781,0.00049201,-0.00036483,-0.
 00035853,0.00001960,0.00001698,0.00001039,-0.00005206,0.00025403,0.000
 08203,-0.00019901,0.00094191,-0.00051721,-0.00082077,0.00184715,0.0016
 5038,-0.02503762,-0.02570125,0.03061172,-0.00046921,0.00154511,-0.0026
 7490,0.00219500,-0.00272456,-0.00055727,0.00550763,-0.00075336,0.00061
 938,-0.00521208,-0.00176821,-0.00361708,0.00011769,-0.00005007,0.00004
 850,-0.00050958,0.00015047,0.00027205,0.00008412,0.00005919,0.00002058
 ,0.00001219,-0.00001761,-0.00005435,0.00000311,-0.00008853,0.00005589,
 0.00001395,0.00000615,-0.00003231,-0.00004848,0.00003820,-0.00002818,0
 .00002389,-0.00000610,0.00002159,-0.00001428,-0.00000546,-0.00000034,-
 0.00002341,0.00000886,-0.00000847,0.00005327,-0.00002968,0.00003125,-0
 .00001902,0.00001380,-0.00001314,-0.00000522,-0.00000051,0.00000182,0.
 00002836,-0.00000739,0.00000138,-0.00001466,-0.00001076,0.00000362,-0.
 00000770,-0.00000133,0.00000557,-0.00000717,0.00000117,-0.00000328,0.0
 0002345,-0.00001247,-0.00000838,0.00008387,0.00000110,-0.00000750,-0.0
 0011552,-0.00007240,-0.00000244,-0.00001976,0.00016914,0.00017802,0.00
 000585,-0.00033278,-0.00026606,0.00074444,-0.00053554,0.00013313,-0.00
 022201,0.00025208,-0.00007998,-0.00023153,0.00050731,0.00021505,-0.000
 00647,0.00000289,0.00000175,-0.00000138,0.00000112,-0.00000316,0.00000
 935,0.00004574,-0.00003191,-0.00000453,-0.00000332,0.00000239,0.000965
 83,-0.00620193,0.00279369,-0.00032869,0.00025772,-0.00064312,0.0236479
 5,0.03229047,0.00000008,0.00002110,-0.00003362,0.00002216,-0.00002868,
 0.00001346,0.00000491,0.00000956,0.00000024,-0.00000244,0.00000052,0.0
 0000171,0.00002159,-0.00002255,0.00003299,0.00002438,-0.00000537,-0.00
 000611,-0.00005095,0.00000179,-0.00001072,-0.00000794,-0.00000320,0.00
 000370,0.00011602,-0.00001981,-0.00000231,-0.00005684,0.00006329,-0.00
 002106,0.00006239,0.00002636,0.00012985,-0.00008993,0.00007112,-0.0000
 6824,0.00038743,-0.00010015,-0.00005043,-0.00006037,-0.00000905,0.0000
 3316,0.00003651,-0.00014605,0.00004227,-0.00001148,0.00002583,-0.00000
 864,-0.00037961,-0.00028799,0.00027243,0.00000061,-0.00001193,-0.00003
 799,0.00000466,-0.00001028,-0.00000960,0.00000060,0.00000328,0.0000268
 0,0.00003848,0.00000903,-0.00000105,-0.00005697,-0.00001207,0.00001416
 ,-0.00000430,-0.00000389,0.00000394,0.00005046,0.00028909,-0.00018583,
 0.00010181,-0.00056095,0.00034030,0.00006830,0.00005746,-0.00007427,0.
 00009585,0.00028455,-0.00013930,0.00138129,0.00278931,0.00118094,0.000
 65203,-0.00097207,-0.00034483,0.04517155,0.02757650,-0.06554384,-0.000
 05385,0.00049262,-0.00255044,0.00369241,-0.00512550,-0.00049150,-0.007
 81325,0.00148771,-0.00062580,-0.00024322,0.00001567,0.00009232,-0.0001
 3376,0.00005540,-0.00006607,0.00073446,0.00018378,-0.00017705,-0.00003
 751,-0.00007795,0.00001114,-0.00007082,0.00006720,0.00007853,-0.000012
 77,0.00007089,-0.00012837,-0.00002003,-0.00000925,0.00004199,0.0000721
 2,-0.00002906,0.00005255,-0.00002814,0.00003991,-0.00003089,0.00000093
 ,-0.00000791,0.00000348,0.00000045,0.00000251,0.00000011,0.00002302,-0
 .00000743,0.00001445,-0.00001055,0.00000504,-0.00001049,0.00000314,0.0
 0000461,-0.00000759,0.00001544,-0.00002928,0.00001670,-0.00001614,0.00
 000328,0.00001267,0.00000256,0.00000433,-0.00000578,0.00013112,-0.0000
 2233,0.00001248,-0.00004340,-0.00001312,0.00001500,0.00003912,-0.00006
 599,0.00008875,-0.00005942,0.00008003,-0.00022802,-0.00040690,-0.00036
 081,0.00027128,-0.00030000,-0.00040800,0.00039408,0.00108232,0.0013141
 4,-0.00031241,-0.00032795,0.00001333,0.00003517,0.00057275,0.00014946,
 0.00026449,-0.00005065,0.00003240,-0.00002737,0.00001046,0.00000063,-0
 .00000534,-0.00001710,-0.00004686,0.00004198,-0.00003227,-0.00000048,0
 .00001749,-0.00156564,0.00115303,0.00121369,-0.00141816,-0.00047099,-0
 .00075939,-0.04123901,-0.02753578,0.06719005\\0.00001201,-0.00000912,0
 .00000161,-0.00000145,0.00000382,-0.00000657,-0.00000597,0.00000175,0.
 00000468,-0.00000466,0.00000051,-0.00000444,0.00000156,-0.00000066,0.0
 0000273,0.00000756,0.00000151,0.00000897,0.00000157,-0.00000256,0.0000
 0468,-0.00000370,0.00000163,0.00000065,0.00001439,-0.00000067,-0.00000
 770,-0.00000044,-0.00001044,0.00000163,-0.00000957,0.00000543,-0.00000
 800,-0.00000218,0.00000598,0.00000077,-0.00000487,0.00000128,-0.000004
 97,0.00000531,-0.00000394,0.00000461,-0.00000815,0.00001090,-0.0000036
 9,-0.00000274,0.00000353,0.00000307,-0.00000269,0.00000611,0.00000472,
 0.00001901,-0.00001200,-0.00001774,-0.00000835,0.00001062,-0.00001189,
 -0.00000520,-0.00000146,-0.00000669,-0.00000004,0.00001505,0.00002302,
 0.,-0.00000454,0.00000360,-0.00000602,0.00001654,0.00000032,-0.0000091
 8,0.00001559,-0.00000287,0.00000782,-0.00000596,0.00000476,0.00000098,
 0.00000009,0.00001048,0.00002541,-0.00000811,0.00002750,-0.00000600,-0
 .00000085,-0.00001413,0.00000123,-0.00000600,-0.00001008,-0.00002418,-
 0.00003208,-0.00003530,0.00001407,0.00002965,0.00000569,-0.00000098,0.
 00000739,-0.00000921,0.00001774,-0.00000580,0.00000405,0.00000139,-0.0
 0000451,0.00000838,-0.00000073,-0.00000240,-0.00000164,0.00000348,-0.0
 0000433,0.00000250,-0.00000218,0.00000031,-0.00000665,0.00000198,-0.00
 000101,-0.00000262,0.00000632,-0.00000839,0.00000287,-0.00001259,0.000
 00369,0.00000100,-0.00000089,-0.00000034,-0.00000165,0.00001339,-0.000
 01604,0.00001693,-0.00000143,0.00000135,-0.00000411,-0.00002071,0.0000
 2533,-0.00000785,0.00002255,-0.00001762,0.00001211,-0.00002701,0.00001
 033,-0.00001919,-0.00000162,0.00000271,-0.00000040,0.00004386,-0.00002
 440,0.00000682,-0.00002288,0.00000454,0.00000100,-0.00000442,0.0000044
 5,0.00000031,-0.00000469,0.00000633,0.00000837,0.00000068,-0.00000104,
 0.00000068,0.00000395,-0.00000030,0.00000709,-0.00001408,-0.00001086,-
 0.00001959,0.00001205,-0.00001131,-0.00000647,-0.00000433,0.00001274,-
 0.00001467,-0.00000380,-0.00000174,0.00003477,-0.00000097,-0.00000348,
 -0.00000400,0.00000084,0.00000651,0.00000366,0.00000022,0.00000121,0.0
 0000065,-0.00000160,0.00000182,-0.00000307,-0.00000056,0.00000056,-0.0
 0000072,-0.00000311,0.00000387,-0.00000656,0.00000714,-0.00001357,-0.0
 0000600,-0.00000142,0.00000010,-0.00000305,-0.00001113,0.00000234,0.00
 002685\\\@
 The archive entry for this job was punched.


 DESK:  A WASTEBASKET WITH DRAWERS.
 Job cpu time:       6 days 17 hours 31 minutes 34.4 seconds.
 Elapsed time:       0 days  3 hours 22 minutes 26.3 seconds.
 File lengths (MBytes):  RWF=  14493 Int=      0 D2E=      0 Chk=    142 Scr=      2
 Normal termination of Gaussian 16 at Fri Mar 10 00:41:48 2023.
