 Entering Gaussian System, Link 0=/apps/GAU16/avx2/g16/g16
 Initial command:
 /apps/GAU16/avx2//g16/l1.exe "/localscratch/chegho/Gau-193306.inp" -scrdir="/localscratch/chegho/"
 Entering Link 1 = /apps/GAU16/avx2//g16/l1.exe PID=    193309.
  
 Copyright (c) 1988-2019, Gaussian, Inc.  All Rights Reserved.
  
 This is part of the Gaussian(R) 16 program.  It is based on
 the Gaussian(R) 09 system (copyright 2009, Gaussian, Inc.),
 the Gaussian(R) 03 system (copyright 2003, Gaussian, Inc.),
 the Gaussian(R) 98 system (copyright 1998, Gaussian, Inc.),
 the Gaussian(R) 94 system (copyright 1995, Gaussian, Inc.),
 the Gaussian 92(TM) system (copyright 1992, Gaussian, Inc.),
 the Gaussian 90(TM) system (copyright 1990, Gaussian, Inc.),
 the Gaussian 88(TM) system (copyright 1988, Gaussian, Inc.),
 the Gaussian 86(TM) system (copyright 1986, Carnegie Mellon
 University), and the Gaussian 82(TM) system (copyright 1983,
 Carnegie Mellon University). Gaussian is a federally registered
 trademark of Gaussian, Inc.
  
 This software contains proprietary and confidential information,
 including trade secrets, belonging to Gaussian, Inc.
  
 This software is provided under written license and may be
 used, copied, transmitted, or stored only in accord with that
 written license.
  
 The following legend is applicable only to US Government
 contracts under FAR:
  
                    RESTRICTED RIGHTS LEGEND
  
 Use, reproduction and disclosure by the US Government is
 subject to restrictions as set forth in subparagraphs (a)
 and (c) of the Commercial Computer Software - Restricted
 Rights clause in FAR 52.227-19.
  
 Gaussian, Inc.
 340 Quinnipiac St., Bldg. 40, Wallingford CT 06492
  
  
 ---------------------------------------------------------------
 Warning -- This program may not be used in any manner that
 competes with the business of Gaussian, Inc. or will provide
 assistance to any competitor of Gaussian, Inc.  The licensee
 of this program is prohibited from giving any competitor of
 Gaussian, Inc. access to this program.  By using this program,
 the user acknowledges that Gaussian, Inc. is engaged in the
 business of creating and licensing software in the field of
 computational chemistry and represents and warrants to the
 licensee that it is not a competitor of Gaussian, Inc. and that
 it will not use this program in any manner prohibited above.
 ---------------------------------------------------------------
  

 Cite this work as:
 Gaussian 16, Revision C.01,
 M. J. Frisch, G. W. Trucks, H. B. Schlegel, G. E. Scuseria, 
 M. A. Robb, J. R. Cheeseman, G. Scalmani, V. Barone, 
 G. A. Petersson, H. Nakatsuji, X. Li, M. Caricato, A. V. Marenich, 
 J. Bloino, B. G. Janesko, R. Gomperts, B. Mennucci, H. P. Hratchian, 
 J. V. Ortiz, A. F. Izmaylov, J. L. Sonnenberg, D. Williams-Young, 
 F. Ding, F. Lipparini, F. Egidi, J. Goings, B. Peng, A. Petrone, 
 T. Henderson, D. Ranasinghe, V. G. Zakrzewski, J. Gao, N. Rega, 
 G. Zheng, W. Liang, M. Hada, M. Ehara, K. Toyota, R. Fukuda, 
 J. Hasegawa, M. Ishida, T. Nakajima, Y. Honda, O. Kitao, H. Nakai, 
 T. Vreven, K. Throssell, J. A. Montgomery, Jr., J. E. Peralta, 
 F. Ogliaro, M. J. Bearpark, J. J. Heyd, E. N. Brothers, K. N. Kudin, 
 V. N. Staroverov, T. A. Keith, R. Kobayashi, J. Normand, 
 K. Raghavachari, A. P. Rendell, J. C. Burant, S. S. Iyengar, 
 J. Tomasi, M. Cossi, J. M. Millam, M. Klene, C. Adamo, R. Cammi, 
 J. W. Ochterski, R. L. Martin, K. Morokuma, O. Farkas, 
 J. B. Foresman, and D. J. Fox, Gaussian, Inc., Wallingford CT, 2019.
 
 ******************************************
 Gaussian 16:  ES64L-G16RevC.01  3-Jul-2019
                22-Feb-2023 
 ******************************************
 %nprocshared=48
 Will use up to   48 processors via shared memory.
 %chk=Mo19S45_ts.chk
 %mem=100GB
 ----------------------------------------------------------------------
 # opt=(calcfc,ts,noeigen) freq b3lyp/gen nosymm pseudo=read scf=maxcyc
 les=500
 ----------------------------------------------------------------------
 1/5=1,10=4,11=1,18=20,26=3,38=1/1,3;
 2/9=110,12=2,15=1,17=6,18=5,40=1/2;
 3/5=7,11=2,16=1,17=8,25=1,30=1,71=2,74=-5,140=1/1,2,3;
 4//1;
 5/5=2,7=500,38=5/2;
 8/6=4,10=90,11=11/1;
 11/6=1,8=1,9=11,15=111,16=1,31=1/1,2,10;
 10/6=1,13=1,31=1/2;
 6/7=2,8=2,9=2,10=2,28=1/1;
 7/10=1,25=1,30=1/1,2,3,16;
 1/5=1,10=4,11=1,18=20,26=3/3(2);
 2/9=110,15=1/2;
 99//99;
 2/9=110,15=1/2;
 3/5=7,6=1,11=2,16=1,17=8,25=1,30=1,71=1,74=-5,82=7/1,2,3;
 4/5=5,16=3,69=1/1;
 5/5=2,7=500,38=5/2;
 7/30=1/1,2,3,16;
 1/5=1,11=1,18=20,26=3/3(-5);
 2/9=110,15=1/2;
 6/7=2,8=2,9=2,10=2,19=2,28=1/1;
 99/9=1/99;
 -------------------
 Title Card Required
 -------------------
 Symbolic Z-matrix:
 Charge =  0 Multiplicity = 1
 42                    0.37281   1.28164   12.57903 
 16                    2.3845    2.24994   13.58023 
 16                   -0.66363   1.97476   14.79582 
 16                   -0.44435   0.94127   10.31167 
 16                    1.98508  -0.4511    11.9874 
 42                   -2.01101   2.66492   10.97692 
 16                   -2.84805   2.42804   8.68884 
 16                   -0.0286    3.59262   12.0036 
 42                    0.98384   2.87257   9.89241 
 16                    0.14574   2.59726   7.60303 
 16                    2.56865   1.11561   9.26743 
 42                    3.41833   1.45424   11.5222 
 42                   -1.41026   4.33795   8.2804 
 16                    5.53738   2.45039   12.5769 
 16                    3.04138   3.76271   10.88575 
 16                   -2.33869   5.01943   10.42479 
 16                    1.24888   6.87791   6.53021 
 42                   -4.34085   4.1411    9.48352 
 16                   -5.8417    2.10055   9.66799 
 16                   -5.42267   4.71929   11.43558 
 42                    2.65623  -0.02379   14.26191 
 16                    4.91553   0.34242   15.3205 
 16                    1.73826   0.60377   16.30111 
 42                    1.61012   4.47343   7.21631 
 16                    0.83735   4.36536   4.83946 
 16                    0.62806   5.21561   9.29431 
 42                    4.03385   2.99376   8.80802 
 16                    3.15053   2.69849   6.56688 
 16                    3.67413   5.3114    8.2037 
 42                    4.59735   4.55967   6.09847 
 16                    6.92382   5.16775   6.63035 
 16                    4.38033   7.01869   5.66573 
 42                    2.58015   6.18667   4.57945 
 16                    3.84428   4.28762   3.87424 
 16                   -1.18836   7.17304   3.91941 
 42                   -0.85544   5.98061   5.63183 
 16                   -2.29756   4.05137   5.87904 
 16                   -1.74447   6.84105   7.70995 
 42                   -3.59083   5.90024   6.60091 
 16                   -5.61002   4.62445   7.39361 
 16                   -4.39137   7.09706   5.05976 
 42                   -5.15829   2.2819    11.79134 
 16                   -3.22459   3.26943   13.09038 
 16                   -3.44632   0.62594   11.48779 
 42                   -2.57321   0.99393   13.77256 
 16                   -1.10787  -0.74044   13.02906 
 16                   -4.03434   0.33333   15.14636 
 42                   -0.22498  -0.41621   15.25829 
 16                    1.34677  -2.05815   14.62365 
 16                   -1.27166  -1.31403   16.8664 
 42                    5.89153   0.17901   13.04485 
 16                    5.05028  -0.4335    10.93805 
 16                    8.42372   1.08622   10.63395 
 42                    6.36754   1.57938   10.44081 
 16                    5.61756   1.08978   8.15327 
 16                    6.21647   3.92588   9.75588 
 42                    7.04908   2.92158   7.77347 
 16                    9.12984   2.53214   7.75298 
 16                    2.3472    7.41741   2.87125 
 16                    7.89326  -0.36922   13.47515 
 16                   -6.79947   1.63614   12.96563 
 16                   -5.09654   6.33488   8.52627 
 16                    4.6556   -1.52861   14.37838 
 16                    6.48492   3.02917   5.41412 
 

 GradGradGradGradGradGradGradGradGradGradGradGradGradGradGradGradGradGrad
 Berny optimization.
 Initialization pass.
                           ----------------------------
                           !    Initial Parameters    !
                           ! (Angstroms and Degrees)  !
 --------------------------                            --------------------------
 ! Name  Definition              Value          Derivative Info.                !
 --------------------------------------------------------------------------------
 ! R1    R(1,2)                  2.4468         calculate D2E/DX2 analytically  !
 ! R2    R(1,3)                  2.5434         calculate D2E/DX2 analytically  !
 ! R3    R(1,4)                  2.434          calculate D2E/DX2 analytically  !
 ! R4    R(1,5)                  2.4396         calculate D2E/DX2 analytically  !
 ! R5    R(1,8)                  2.4151         calculate D2E/DX2 analytically  !
 ! R6    R(1,46)                 2.5463         calculate D2E/DX2 analytically  !
 ! R7    R(2,12)                 2.4367         calculate D2E/DX2 analytically  !
 ! R8    R(2,21)                 2.3892         calculate D2E/DX2 analytically  !
 ! R9    R(3,45)                 2.3782         calculate D2E/DX2 analytically  !
 ! R10   R(3,48)                 2.4745         calculate D2E/DX2 analytically  !
 ! R11   R(4,6)                  2.4224         calculate D2E/DX2 analytically  !
 ! R12   R(4,9)                  2.4383         calculate D2E/DX2 analytically  !
 ! R13   R(5,12)                 2.4292         calculate D2E/DX2 analytically  !
 ! R14   R(5,21)                 2.4096         calculate D2E/DX2 analytically  !
 ! R15   R(6,7)                  2.4479         calculate D2E/DX2 analytically  !
 ! R16   R(6,8)                  2.4176         calculate D2E/DX2 analytically  !
 ! R17   R(6,16)                 2.4405         calculate D2E/DX2 analytically  !
 ! R18   R(6,43)                 2.511          calculate D2E/DX2 analytically  !
 ! R19   R(6,44)                 2.5453         calculate D2E/DX2 analytically  !
 ! R20   R(7,13)                 2.4253         calculate D2E/DX2 analytically  !
 ! R21   R(7,18)                 2.4072         calculate D2E/DX2 analytically  !
 ! R22   R(8,9)                  2.4496         calculate D2E/DX2 analytically  !
 ! R23   R(9,10)                 2.4535         calculate D2E/DX2 analytically  !
 ! R24   R(9,11)                 2.4473         calculate D2E/DX2 analytically  !
 ! R25   R(9,15)                 2.4521         calculate D2E/DX2 analytically  !
 ! R26   R(9,26)                 2.4442         calculate D2E/DX2 analytically  !
 ! R27   R(10,13)                2.431          calculate D2E/DX2 analytically  !
 ! R28   R(10,24)                2.4112         calculate D2E/DX2 analytically  !
 ! R29   R(11,12)                2.4332         calculate D2E/DX2 analytically  !
 ! R30   R(11,27)                2.426          calculate D2E/DX2 analytically  !
 ! R31   R(12,14)                2.5681         calculate D2E/DX2 analytically  !
 ! R32   R(12,15)                2.4241         calculate D2E/DX2 analytically  !
 ! R33   R(12,52)                2.5628         calculate D2E/DX2 analytically  !
 ! R34   R(13,16)                2.4341         calculate D2E/DX2 analytically  !
 ! R35   R(13,26)                2.4399         calculate D2E/DX2 analytically  !
 ! R36   R(13,37)                2.576          calculate D2E/DX2 analytically  !
 ! R37   R(13,38)                2.5889         calculate D2E/DX2 analytically  !
 ! R38   R(14,51)                2.346          calculate D2E/DX2 analytically  !
 ! R39   R(14,54)                2.4517         calculate D2E/DX2 analytically  !
 ! R40   R(15,27)                2.4276         calculate D2E/DX2 analytically  !
 ! R41   R(16,18)                2.3803         calculate D2E/DX2 analytically  !
 ! R42   R(17,24)                2.5264         calculate D2E/DX2 analytically  !
 ! R43   R(17,33)                2.4608         calculate D2E/DX2 analytically  !
 ! R44   R(17,36)                2.4577         calculate D2E/DX2 analytically  !
 ! R45   R(18,19)                2.5398         calculate D2E/DX2 analytically  !
 ! R46   R(18,20)                2.3055         calculate D2E/DX2 analytically  !
 ! R47   R(18,40)                2.4924         calculate D2E/DX2 analytically  !
 ! R48   R(18,42)                3.0742         calculate D2E/DX2 analytically  !
 ! R49   R(18,62)                2.51           calculate D2E/DX2 analytically  !
 ! R50   R(19,42)                2.238          calculate D2E/DX2 analytically  !
 ! R51   R(20,42)                2.4774         calculate D2E/DX2 analytically  !
 ! R52   R(21,22)                2.5217         calculate D2E/DX2 analytically  !
 ! R53   R(21,23)                2.3227         calculate D2E/DX2 analytically  !
 ! R54   R(21,48)                3.0738         calculate D2E/DX2 analytically  !
 ! R55   R(21,49)                2.4463         calculate D2E/DX2 analytically  !
 ! R56   R(21,63)                2.5051         calculate D2E/DX2 analytically  !
 ! R57   R(22,51)                2.4815         calculate D2E/DX2 analytically  !
 ! R58   R(22,63)                2.1109         calculate D2E/DX2 analytically  !
 ! R59   R(23,48)                2.4458         calculate D2E/DX2 analytically  !
 ! R60   R(24,25)                2.5017         calculate D2E/DX2 analytically  !
 ! R61   R(24,26)                2.4152         calculate D2E/DX2 analytically  !
 ! R62   R(24,28)                2.4382         calculate D2E/DX2 analytically  !
 ! R63   R(24,29)                2.4367         calculate D2E/DX2 analytically  !
 ! R64   R(25,33)                2.5342         calculate D2E/DX2 analytically  !
 ! R65   R(25,36)                2.4703         calculate D2E/DX2 analytically  !
 ! R66   R(27,28)                2.427          calculate D2E/DX2 analytically  !
 ! R67   R(27,29)                2.422          calculate D2E/DX2 analytically  !
 ! R68   R(27,55)                2.5616         calculate D2E/DX2 analytically  !
 ! R69   R(27,56)                2.5556         calculate D2E/DX2 analytically  !
 ! R70   R(28,30)                2.4035         calculate D2E/DX2 analytically  !
 ! R71   R(29,30)                2.4186         calculate D2E/DX2 analytically  !
 ! R72   R(30,31)                2.4627         calculate D2E/DX2 analytically  !
 ! R73   R(30,32)                2.5062         calculate D2E/DX2 analytically  !
 ! R74   R(30,33)                3.0039         calculate D2E/DX2 analytically  !
 ! R75   R(30,34)                2.364          calculate D2E/DX2 analytically  !
 ! R76   R(30,64)                2.5246         calculate D2E/DX2 analytically  !
 ! R77   R(31,57)                2.5234         calculate D2E/DX2 analytically  !
 ! R78   R(32,33)                2.2612         calculate D2E/DX2 analytically  !
 ! R79   R(33,34)                2.3878         calculate D2E/DX2 analytically  !
 ! R80   R(33,59)                2.1182         calculate D2E/DX2 analytically  !
 ! R81   R(35,36)                2.1131         calculate D2E/DX2 analytically  !
 ! R82   R(36,37)                2.4213         calculate D2E/DX2 analytically  !
 ! R83   R(36,38)                2.4185         calculate D2E/DX2 analytically  !
 ! R84   R(36,39)                2.9031         calculate D2E/DX2 analytically  !
 ! R85   R(37,39)                2.369          calculate D2E/DX2 analytically  !
 ! R86   R(38,39)                2.3503         calculate D2E/DX2 analytically  !
 ! R87   R(39,40)                2.5166         calculate D2E/DX2 analytically  !
 ! R88   R(39,41)                2.1091         calculate D2E/DX2 analytically  !
 ! R89   R(39,62)                2.4826         calculate D2E/DX2 analytically  !
 ! R90   R(40,62)                2.1147         calculate D2E/DX2 analytically  !
 ! R91   R(42,43)                2.5302         calculate D2E/DX2 analytically  !
 ! R92   R(42,44)                2.4011         calculate D2E/DX2 analytically  !
 ! R93   R(42,61)                2.1188         calculate D2E/DX2 analytically  !
 ! R94   R(43,45)                2.4632         calculate D2E/DX2 analytically  !
 ! R95   R(44,45)                2.4734         calculate D2E/DX2 analytically  !
 ! R96   R(45,46)                2.3892         calculate D2E/DX2 analytically  !
 ! R97   R(45,47)                2.1115         calculate D2E/DX2 analytically  !
 ! R98   R(45,48)                3.1161         calculate D2E/DX2 analytically  !
 ! R99   R(46,48)                2.4195         calculate D2E/DX2 analytically  !
 ! R100  R(48,49)                2.3599         calculate D2E/DX2 analytically  !
 ! R101  R(48,50)                2.1184         calculate D2E/DX2 analytically  !
 ! R102  R(51,52)                2.3498         calculate D2E/DX2 analytically  !
 ! R103  R(51,54)                2.9948         calculate D2E/DX2 analytically  !
 ! R104  R(51,60)                2.1196         calculate D2E/DX2 analytically  !
 ! R105  R(51,63)                2.4944         calculate D2E/DX2 analytically  !
 ! R106  R(52,54)                2.4564         calculate D2E/DX2 analytically  !
 ! R107  R(53,54)                2.1233         calculate D2E/DX2 analytically  !
 ! R108  R(54,55)                2.4566         calculate D2E/DX2 analytically  !
 ! R109  R(54,56)                2.4491         calculate D2E/DX2 analytically  !
 ! R110  R(54,57)                3.0628         calculate D2E/DX2 analytically  !
 ! R111  R(55,57)                2.3556         calculate D2E/DX2 analytically  !
 ! R112  R(56,57)                2.3731         calculate D2E/DX2 analytically  !
 ! R113  R(57,58)                2.117          calculate D2E/DX2 analytically  !
 ! R114  R(57,64)                2.4283         calculate D2E/DX2 analytically  !
 ! A1    A(2,1,3)               82.562          calculate D2E/DX2 analytically  !
 ! A2    A(2,1,4)              135.4406         calculate D2E/DX2 analytically  !
 ! A3    A(2,1,5)               80.6165         calculate D2E/DX2 analytically  !
 ! A4    A(2,1,8)               81.6899         calculate D2E/DX2 analytically  !
 ! A5    A(2,1,46)             136.0572         calculate D2E/DX2 analytically  !
 ! A6    A(3,1,4)              135.4969         calculate D2E/DX2 analytically  !
 ! A7    A(3,1,5)              132.3941         calculate D2E/DX2 analytically  !
 ! A8    A(3,1,8)               83.0599         calculate D2E/DX2 analytically  !
 ! A9    A(3,1,46)              79.9452         calculate D2E/DX2 analytically  !
 ! A10   A(4,1,5)               84.0676         calculate D2E/DX2 analytically  !
 ! A11   A(4,1,8)               81.7245         calculate D2E/DX2 analytically  !
 ! A12   A(4,1,46)              81.8575         calculate D2E/DX2 analytically  !
 ! A13   A(5,1,8)              137.027          calculate D2E/DX2 analytically  !
 ! A14   A(5,1,46)              82.1333         calculate D2E/DX2 analytically  !
 ! A15   A(8,1,46)             134.8565         calculate D2E/DX2 analytically  !
 ! A16   A(1,2,12)              82.7614         calculate D2E/DX2 analytically  !
 ! A17   A(1,2,21)              80.424          calculate D2E/DX2 analytically  !
 ! A18   A(12,2,21)             83.2208         calculate D2E/DX2 analytically  !
 ! A19   A(1,3,45)              80.7808         calculate D2E/DX2 analytically  !
 ! A20   A(1,3,48)              80.0573         calculate D2E/DX2 analytically  !
 ! A21   A(1,4,6)               82.0563         calculate D2E/DX2 analytically  !
 ! A22   A(1,4,9)               81.5337         calculate D2E/DX2 analytically  !
 ! A23   A(6,4,9)               82.0934         calculate D2E/DX2 analytically  !
 ! A24   A(1,5,12)              83.0661         calculate D2E/DX2 analytically  !
 ! A25   A(1,5,21)              80.1665         calculate D2E/DX2 analytically  !
 ! A26   A(12,5,21)             82.9542         calculate D2E/DX2 analytically  !
 ! A27   A(4,6,7)               84.007          calculate D2E/DX2 analytically  !
 ! A28   A(4,6,8)               81.914          calculate D2E/DX2 analytically  !
 ! A29   A(4,6,16)             135.3319         calculate D2E/DX2 analytically  !
 ! A30   A(4,6,43)             135.646          calculate D2E/DX2 analytically  !
 ! A31   A(4,6,44)              81.3624         calculate D2E/DX2 analytically  !
 ! A32   A(7,6,8)              135.6009         calculate D2E/DX2 analytically  !
 ! A33   A(7,6,16)              80.5596         calculate D2E/DX2 analytically  !
 ! A34   A(7,6,43)             130.1495         calculate D2E/DX2 analytically  !
 ! A35   A(7,6,44)              85.254          calculate D2E/DX2 analytically  !
 ! A36   A(8,6,16)              80.5589         calculate D2E/DX2 analytically  !
 ! A37   A(8,6,43)              86.9325         calculate D2E/DX2 analytically  !
 ! A38   A(8,6,44)             133.2014         calculate D2E/DX2 analytically  !
 ! A39   A(16,6,43)             83.8728         calculate D2E/DX2 analytically  !
 ! A40   A(16,6,44)            137.9492         calculate D2E/DX2 analytically  !
 ! A41   A(43,6,44)             75.604          calculate D2E/DX2 analytically  !
 ! A42   A(6,7,13)              83.0207         calculate D2E/DX2 analytically  !
 ! A43   A(6,7,18)              80.4799         calculate D2E/DX2 analytically  !
 ! A44   A(13,7,18)             82.1149         calculate D2E/DX2 analytically  !
 ! A45   A(1,8,6)               82.547          calculate D2E/DX2 analytically  !
 ! A46   A(1,8,9)               81.6848         calculate D2E/DX2 analytically  !
 ! A47   A(6,8,9)               81.9585         calculate D2E/DX2 analytically  !
 ! A48   A(4,9,8)               80.9411         calculate D2E/DX2 analytically  !
 ! A49   A(4,9,10)              82.6162         calculate D2E/DX2 analytically  !
 ! A50   A(4,9,11)              81.6381         calculate D2E/DX2 analytically  !
 ! A51   A(4,9,15)             135.1831         calculate D2E/DX2 analytically  !
 ! A52   A(4,9,26)             135.7332         calculate D2E/DX2 analytically  !
 ! A53   A(8,9,10)             134.1077         calculate D2E/DX2 analytically  !
 ! A54   A(8,9,11)             134.3287         calculate D2E/DX2 analytically  !
 ! A55   A(8,9,15)              83.7399         calculate D2E/DX2 analytically  !
 ! A56   A(8,9,26)              82.47           calculate D2E/DX2 analytically  !
 ! A57   A(10,9,11)             84.3965         calculate D2E/DX2 analytically  !
 ! A58   A(10,9,15)            134.861          calculate D2E/DX2 analytically  !
 ! A59   A(10,9,26)             80.1838         calculate D2E/DX2 analytically  !
 ! A60   A(11,9,15)             79.6699         calculate D2E/DX2 analytically  !
 ! A61   A(11,9,26)            136.053          calculate D2E/DX2 analytically  !
 ! A62   A(15,9,26)             82.7195         calculate D2E/DX2 analytically  !
 ! A63   A(9,10,13)             83.0095         calculate D2E/DX2 analytically  !
 ! A64   A(9,10,24)             81.6561         calculate D2E/DX2 analytically  !
 ! A65   A(13,10,24)            82.8922         calculate D2E/DX2 analytically  !
 ! A66   A(9,11,12)             83.6601         calculate D2E/DX2 analytically  !
 ! A67   A(9,11,27)             83.3197         calculate D2E/DX2 analytically  !
 ! A68   A(12,11,27)            81.7691         calculate D2E/DX2 analytically  !
 ! A69   A(2,12,5)              81.0285         calculate D2E/DX2 analytically  !
 ! A70   A(2,12,11)            132.8397         calculate D2E/DX2 analytically  !
 ! A71   A(2,12,14)             82.9088         calculate D2E/DX2 analytically  !
 ! A72   A(2,12,15)             81.0717         calculate D2E/DX2 analytically  !
 ! A73   A(2,12,52)            134.6856         calculate D2E/DX2 analytically  !
 ! A74   A(5,12,11)             82.0836         calculate D2E/DX2 analytically  !
 ! A75   A(5,12,14)            135.4342         calculate D2E/DX2 analytically  !
 ! A76   A(5,12,15)            134.8682         calculate D2E/DX2 analytically  !
 ! A77   A(5,12,52)             80.8867         calculate D2E/DX2 analytically  !
 ! A78   A(11,12,14)           136.2772         calculate D2E/DX2 analytically  !
 ! A79   A(11,12,15)            80.4991         calculate D2E/DX2 analytically  !
 ! A80   A(11,12,52)            84.7577         calculate D2E/DX2 analytically  !
 ! A81   A(14,12,15)            82.3422         calculate D2E/DX2 analytically  !
 ! A82   A(14,12,52)            81.5987         calculate D2E/DX2 analytically  !
 ! A83   A(15,12,52)           137.7851         calculate D2E/DX2 analytically  !
 ! A84   A(7,13,10)             82.0964         calculate D2E/DX2 analytically  !
 ! A85   A(7,13,16)             81.1403         calculate D2E/DX2 analytically  !
 ! A86   A(7,13,26)            135.118          calculate D2E/DX2 analytically  !
 ! A87   A(7,13,37)             82.2518         calculate D2E/DX2 analytically  !
 ! A88   A(7,13,38)            136.218          calculate D2E/DX2 analytically  !
 ! A89   A(10,13,16)           133.6357         calculate D2E/DX2 analytically  !
 ! A90   A(10,13,26)            80.7141         calculate D2E/DX2 analytically  !
 ! A91   A(10,13,37)            83.1694         calculate D2E/DX2 analytically  !
 ! A92   A(10,13,38)           135.5219         calculate D2E/DX2 analytically  !
 ! A93   A(16,13,26)            81.4801         calculate D2E/DX2 analytically  !
 ! A94   A(16,13,37)           136.1379         calculate D2E/DX2 analytically  !
 ! A95   A(16,13,38)            82.7726         calculate D2E/DX2 analytically  !
 ! A96   A(26,13,37)           135.6555         calculate D2E/DX2 analytically  !
 ! A97   A(26,13,38)            81.4673         calculate D2E/DX2 analytically  !
 ! A98   A(37,13,38)            81.8188         calculate D2E/DX2 analytically  !
 ! A99   A(12,14,51)            80.2659         calculate D2E/DX2 analytically  !
 ! A100  A(12,14,54)            77.5123         calculate D2E/DX2 analytically  !
 ! A101  A(9,15,12)             83.7502         calculate D2E/DX2 analytically  !
 ! A102  A(9,15,27)             83.1852         calculate D2E/DX2 analytically  !
 ! A103  A(12,15,27)            81.9227         calculate D2E/DX2 analytically  !
 ! A104  A(6,16,13)             82.9919         calculate D2E/DX2 analytically  !
 ! A105  A(6,16,18)             81.1648         calculate D2E/DX2 analytically  !
 ! A106  A(13,16,18)            82.4814         calculate D2E/DX2 analytically  !
 ! A107  A(24,17,33)            82.5641         calculate D2E/DX2 analytically  !
 ! A108  A(24,17,36)            82.7742         calculate D2E/DX2 analytically  !
 ! A109  A(33,17,36)            94.0641         calculate D2E/DX2 analytically  !
 ! A110  A(7,18,16)             82.6184         calculate D2E/DX2 analytically  !
 ! A111  A(7,18,19)             79.5532         calculate D2E/DX2 analytically  !
 ! A112  A(7,18,20)            138.5033         calculate D2E/DX2 analytically  !
 ! A113  A(7,18,40)            100.1937         calculate D2E/DX2 analytically  !
 ! A114  A(7,18,42)             88.9881         calculate D2E/DX2 analytically  !
 ! A115  A(7,18,62)            133.0625         calculate D2E/DX2 analytically  !
 ! A116  A(16,18,19)           139.8882         calculate D2E/DX2 analytically  !
 ! A117  A(16,18,20)            88.128          calculate D2E/DX2 analytically  !
 ! A118  A(16,18,40)           133.4976         calculate D2E/DX2 analytically  !
 ! A119  A(16,18,42)            98.6245         calculate D2E/DX2 analytically  !
 ! A120  A(16,18,62)            94.6773         calculate D2E/DX2 analytically  !
 ! A121  A(19,18,20)            82.1086         calculate D2E/DX2 analytically  !
 ! A122  A(19,18,40)            85.1698         calculate D2E/DX2 analytically  !
 ! A123  A(19,18,62)           123.5046         calculate D2E/DX2 analytically  !
 ! A124  A(20,18,40)           114.9856         calculate D2E/DX2 analytically  !
 ! A125  A(20,18,62)            87.8476         calculate D2E/DX2 analytically  !
 ! A126  A(40,18,42)           127.687          calculate D2E/DX2 analytically  !
 ! A127  A(42,18,62)           137.2923         calculate D2E/DX2 analytically  !
 ! A128  A(2,21,5)              82.4017         calculate D2E/DX2 analytically  !
 ! A129  A(2,21,22)             94.7878         calculate D2E/DX2 analytically  !
 ! A130  A(2,21,23)             87.0431         calculate D2E/DX2 analytically  !
 ! A131  A(2,21,48)             96.164          calculate D2E/DX2 analytically  !
 ! A132  A(2,21,49)            140.6            calculate D2E/DX2 analytically  !
 ! A133  A(2,21,63)            132.5088         calculate D2E/DX2 analytically  !
 ! A134  A(5,21,22)            132.1859         calculate D2E/DX2 analytically  !
 ! A135  A(5,21,23)            140.0446         calculate D2E/DX2 analytically  !
 ! A136  A(5,21,48)             91.2754         calculate D2E/DX2 analytically  !
 ! A137  A(5,21,49)             80.9682         calculate D2E/DX2 analytically  !
 ! A138  A(5,21,63)             99.1873         calculate D2E/DX2 analytically  !
 ! A139  A(22,21,23)            86.9217         calculate D2E/DX2 analytically  !
 ! A140  A(22,21,48)           136.2415         calculate D2E/DX2 analytically  !
 ! A141  A(22,21,49)           122.5664         calculate D2E/DX2 analytically  !
 ! A142  A(23,21,49)            83.2985         calculate D2E/DX2 analytically  !
 ! A143  A(23,21,63)           115.9072         calculate D2E/DX2 analytically  !
 ! A144  A(48,21,63)           131.0225         calculate D2E/DX2 analytically  !
 ! A145  A(49,21,63)            85.4572         calculate D2E/DX2 analytically  !
 ! A146  A(21,22,51)            87.5842         calculate D2E/DX2 analytically  !
 ! A147  A(10,24,17)           134.2079         calculate D2E/DX2 analytically  !
 ! A148  A(10,24,25)            86.0531         calculate D2E/DX2 analytically  !
 ! A149  A(10,24,26)            81.6146         calculate D2E/DX2 analytically  !
 ! A150  A(10,24,28)            81.9509         calculate D2E/DX2 analytically  !
 ! A151  A(10,24,29)           135.8107         calculate D2E/DX2 analytically  !
 ! A152  A(17,24,25)            74.8661         calculate D2E/DX2 analytically  !
 ! A153  A(17,24,26)            83.2839         calculate D2E/DX2 analytically  !
 ! A154  A(17,24,28)           135.3025         calculate D2E/DX2 analytically  !
 ! A155  A(17,24,29)            84.4831         calculate D2E/DX2 analytically  !
 ! A156  A(25,24,26)           134.8393         calculate D2E/DX2 analytically  !
 ! A157  A(25,24,28)            84.8736         calculate D2E/DX2 analytically  !
 ! A158  A(25,24,29)           131.4163         calculate D2E/DX2 analytically  !
 ! A159  A(26,24,28)           135.2137         calculate D2E/DX2 analytically  !
 ! A160  A(26,24,29)            83.6908         calculate D2E/DX2 analytically  !
 ! A161  A(28,24,29)            79.8124         calculate D2E/DX2 analytically  !
 ! A162  A(24,25,33)            81.6046         calculate D2E/DX2 analytically  !
 ! A163  A(24,25,36)            83.0315         calculate D2E/DX2 analytically  !
 ! A164  A(33,25,36)            91.9621         calculate D2E/DX2 analytically  !
 ! A165  A(9,26,13)             83.0193         calculate D2E/DX2 analytically  !
 ! A166  A(9,26,24)             81.7655         calculate D2E/DX2 analytically  !
 ! A167  A(13,26,24)            82.6241         calculate D2E/DX2 analytically  !
 ! A168  A(11,27,15)            80.5743         calculate D2E/DX2 analytically  !
 ! A169  A(11,27,28)            82.0019         calculate D2E/DX2 analytically  !
 ! A170  A(11,27,29)           134.297          calculate D2E/DX2 analytically  !
 ! A171  A(11,27,55)            81.1627         calculate D2E/DX2 analytically  !
 ! A172  A(11,27,56)           136.7153         calculate D2E/DX2 analytically  !
 ! A173  A(15,27,28)           132.8503         calculate D2E/DX2 analytically  !
 ! A174  A(15,27,29)            81.3573         calculate D2E/DX2 analytically  !
 ! A175  A(15,27,55)           134.9874         calculate D2E/DX2 analytically  !
 ! A176  A(15,27,56)            85.1924         calculate D2E/DX2 analytically  !
 ! A177  A(28,27,29)            80.3258         calculate D2E/DX2 analytically  !
 ! A178  A(28,27,55)            84.1777         calculate D2E/DX2 analytically  !
 ! A179  A(28,27,56)           134.2438         calculate D2E/DX2 analytically  !
 ! A180  A(29,27,55)           137.6709         calculate D2E/DX2 analytically  !
 ! A181  A(29,27,56)            82.5517         calculate D2E/DX2 analytically  !
 ! A182  A(55,27,56)            80.6705         calculate D2E/DX2 analytically  !
 ! A183  A(24,28,27)            83.9969         calculate D2E/DX2 analytically  !
 ! A184  A(24,28,30)            82.4439         calculate D2E/DX2 analytically  !
 ! A185  A(27,28,30)            82.3373         calculate D2E/DX2 analytically  !
 ! A186  A(24,29,27)            84.1359         calculate D2E/DX2 analytically  !
 ! A187  A(24,29,30)            82.1678         calculate D2E/DX2 analytically  !
 ! A188  A(27,29,30)            82.1297         calculate D2E/DX2 analytically  !
 ! A189  A(28,30,29)            80.8665         calculate D2E/DX2 analytically  !
 ! A190  A(28,30,31)           135.8707         calculate D2E/DX2 analytically  !
 ! A191  A(28,30,32)           137.8432         calculate D2E/DX2 analytically  !
 ! A192  A(28,30,33)            96.5307         calculate D2E/DX2 analytically  !
 ! A193  A(28,30,34)            84.404          calculate D2E/DX2 analytically  !
 ! A194  A(28,30,64)            91.917          calculate D2E/DX2 analytically  !
 ! A195  A(29,30,31)            95.5012         calculate D2E/DX2 analytically  !
 ! A196  A(29,30,32)            79.18           calculate D2E/DX2 analytically  !
 ! A197  A(29,30,33)            90.8872         calculate D2E/DX2 analytically  !
 ! A198  A(29,30,34)           137.1521         calculate D2E/DX2 analytically  !
 ! A199  A(29,30,64)           135.2174         calculate D2E/DX2 analytically  !
 ! A200  A(31,30,32)            82.9251         calculate D2E/DX2 analytically  !
 ! A201  A(31,30,33)           127.5777         calculate D2E/DX2 analytically  !
 ! A202  A(31,30,34)           122.1782         calculate D2E/DX2 analytically  !
 ! A203  A(31,30,64)            60.128          calculate D2E/DX2 analytically  !
 ! A204  A(32,30,34)            85.5764         calculate D2E/DX2 analytically  !
 ! A205  A(32,30,64)           127.7888         calculate D2E/DX2 analytically  !
 ! A206  A(33,30,64)           133.8954         calculate D2E/DX2 analytically  !
 ! A207  A(34,30,64)            85.0298         calculate D2E/DX2 analytically  !
 ! A208  A(30,31,57)            85.6958         calculate D2E/DX2 analytically  !
 ! A209  A(17,33,25)            75.4337         calculate D2E/DX2 analytically  !
 ! A210  A(17,33,30)            96.5783         calculate D2E/DX2 analytically  !
 ! A211  A(17,33,32)            86.9334         calculate D2E/DX2 analytically  !
 ! A212  A(17,33,34)           138.0667         calculate D2E/DX2 analytically  !
 ! A213  A(17,33,59)           114.6185         calculate D2E/DX2 analytically  !
 ! A214  A(25,33,30)            91.1842         calculate D2E/DX2 analytically  !
 ! A215  A(25,33,32)           139.6999         calculate D2E/DX2 analytically  !
 ! A216  A(25,33,34)            79.7931         calculate D2E/DX2 analytically  !
 ! A217  A(25,33,59)           115.1306         calculate D2E/DX2 analytically  !
 ! A218  A(30,33,59)           142.7815         calculate D2E/DX2 analytically  !
 ! A219  A(32,33,34)            90.7477         calculate D2E/DX2 analytically  !
 ! A220  A(32,33,59)           105.1398         calculate D2E/DX2 analytically  !
 ! A221  A(34,33,59)           106.3883         calculate D2E/DX2 analytically  !
 ! A222  A(17,36,25)            76.659          calculate D2E/DX2 analytically  !
 ! A223  A(17,36,35)           103.0089         calculate D2E/DX2 analytically  !
 ! A224  A(17,36,37)           139.776          calculate D2E/DX2 analytically  !
 ! A225  A(17,36,38)            82.5742         calculate D2E/DX2 analytically  !
 ! A226  A(17,36,39)           134.0138         calculate D2E/DX2 analytically  !
 ! A227  A(25,36,35)           102.5334         calculate D2E/DX2 analytically  !
 ! A228  A(25,36,37)            85.4056         calculate D2E/DX2 analytically  !
 ! A229  A(25,36,38)           139.4755         calculate D2E/DX2 analytically  !
 ! A230  A(25,36,39)           137.2768         calculate D2E/DX2 analytically  !
 ! A231  A(35,36,37)           116.0099         calculate D2E/DX2 analytically  !
 ! A232  A(35,36,38)           115.9538         calculate D2E/DX2 analytically  !
 ! A233  A(35,36,39)            97.914          calculate D2E/DX2 analytically  !
 ! A234  A(37,36,38)            88.6708         calculate D2E/DX2 analytically  !
 ! A235  A(13,37,36)            78.5441         calculate D2E/DX2 analytically  !
 ! A236  A(13,37,39)            79.4644         calculate D2E/DX2 analytically  !
 ! A237  A(13,38,36)            78.3403         calculate D2E/DX2 analytically  !
 ! A238  A(13,38,39)            79.535          calculate D2E/DX2 analytically  !
 ! A239  A(36,39,40)           151.0676         calculate D2E/DX2 analytically  !
 ! A240  A(36,39,41)            95.6243         calculate D2E/DX2 analytically  !
 ! A241  A(36,39,62)           145.6416         calculate D2E/DX2 analytically  !
 ! A242  A(37,39,38)            91.5663         calculate D2E/DX2 analytically  !
 ! A243  A(37,39,40)            97.9526         calculate D2E/DX2 analytically  !
 ! A244  A(37,39,41)           115.3038         calculate D2E/DX2 analytically  !
 ! A245  A(37,39,62)           134.7554         calculate D2E/DX2 analytically  !
 ! A246  A(38,39,40)           133.2045         calculate D2E/DX2 analytically  !
 ! A247  A(38,39,41)           114.571          calculate D2E/DX2 analytically  !
 ! A248  A(38,39,62)            92.3169         calculate D2E/DX2 analytically  !
 ! A249  A(40,39,41)           102.3154         calculate D2E/DX2 analytically  !
 ! A250  A(41,39,62)           103.7181         calculate D2E/DX2 analytically  !
 ! A251  A(18,40,39)            87.3555         calculate D2E/DX2 analytically  !
 ! A252  A(18,42,43)            86.914          calculate D2E/DX2 analytically  !
 ! A253  A(18,42,44)            97.62           calculate D2E/DX2 analytically  !
 ! A254  A(18,42,61)           143.7383         calculate D2E/DX2 analytically  !
 ! A255  A(19,42,20)            84.8875         calculate D2E/DX2 analytically  !
 ! A256  A(19,42,43)           138.7746         calculate D2E/DX2 analytically  !
 ! A257  A(19,42,44)            92.401          calculate D2E/DX2 analytically  !
 ! A258  A(19,42,61)           105.3432         calculate D2E/DX2 analytically  !
 ! A259  A(20,42,43)            76.7789         calculate D2E/DX2 analytically  !
 ! A260  A(20,42,44)           137.4325         calculate D2E/DX2 analytically  !
 ! A261  A(20,42,61)           107.2643         calculate D2E/DX2 analytically  !
 ! A262  A(43,42,44)            77.8296         calculate D2E/DX2 analytically  !
 ! A263  A(43,42,61)           115.2376         calculate D2E/DX2 analytically  !
 ! A264  A(44,42,61)           114.3393         calculate D2E/DX2 analytically  !
 ! A265  A(6,43,42)             80.9827         calculate D2E/DX2 analytically  !
 ! A266  A(6,43,45)             83.2749         calculate D2E/DX2 analytically  !
 ! A267  A(42,43,45)            89.0679         calculate D2E/DX2 analytically  !
 ! A268  A(6,44,42)             82.8166         calculate D2E/DX2 analytically  !
 ! A269  A(6,44,45)             82.3665         calculate D2E/DX2 analytically  !
 ! A270  A(42,44,45)            91.8509         calculate D2E/DX2 analytically  !
 ! A271  A(3,45,43)             87.1625         calculate D2E/DX2 analytically  !
 ! A272  A(3,45,44)            137.9244         calculate D2E/DX2 analytically  !
 ! A273  A(3,45,46)             86.6072         calculate D2E/DX2 analytically  !
 ! A274  A(3,45,47)            113.8733         calculate D2E/DX2 analytically  !
 ! A275  A(43,45,44)            77.7765         calculate D2E/DX2 analytically  !
 ! A276  A(43,45,46)           138.2978         calculate D2E/DX2 analytically  !
 ! A277  A(43,45,47)           106.6308         calculate D2E/DX2 analytically  !
 ! A278  A(43,45,48)           138.5351         calculate D2E/DX2 analytically  !
 ! A279  A(44,45,46)            79.6909         calculate D2E/DX2 analytically  !
 ! A280  A(44,45,47)           108.0701         calculate D2E/DX2 analytically  !
 ! A281  A(44,45,48)           129.7254         calculate D2E/DX2 analytically  !
 ! A282  A(46,45,47)           113.5637         calculate D2E/DX2 analytically  !
 ! A283  A(47,45,48)            93.995          calculate D2E/DX2 analytically  !
 ! A284  A(1,46,45)             80.5127         calculate D2E/DX2 analytically  !
 ! A285  A(1,46,48)             81.0385         calculate D2E/DX2 analytically  !
 ! A286  A(3,48,21)             88.9812         calculate D2E/DX2 analytically  !
 ! A287  A(3,48,23)             79.5733         calculate D2E/DX2 analytically  !
 ! A288  A(3,48,46)             83.8346         calculate D2E/DX2 analytically  !
 ! A289  A(3,48,49)            137.7391         calculate D2E/DX2 analytically  !
 ! A290  A(3,48,50)            117.6329         calculate D2E/DX2 analytically  !
 ! A291  A(21,48,45)           119.6064         calculate D2E/DX2 analytically  !
 ! A292  A(21,48,46)            93.4678         calculate D2E/DX2 analytically  !
 ! A293  A(21,48,50)           139.7573         calculate D2E/DX2 analytically  !
 ! A294  A(23,48,45)           128.2765         calculate D2E/DX2 analytically  !
 ! A295  A(23,48,46)           137.8694         calculate D2E/DX2 analytically  !
 ! A296  A(23,48,49)            82.5423         calculate D2E/DX2 analytically  !
 ! A297  A(23,48,50)           104.4588         calculate D2E/DX2 analytically  !
 ! A298  A(45,48,49)           133.5144         calculate D2E/DX2 analytically  !
 ! A299  A(45,48,50)           100.451          calculate D2E/DX2 analytically  !
 ! A300  A(46,48,49)            84.3772         calculate D2E/DX2 analytically  !
 ! A301  A(46,48,50)           117.537          calculate D2E/DX2 analytically  !
 ! A302  A(49,48,50)           103.7888         calculate D2E/DX2 analytically  !
 ! A303  A(14,51,22)            93.428          calculate D2E/DX2 analytically  !
 ! A304  A(14,51,52)            91.1167         calculate D2E/DX2 analytically  !
 ! A305  A(14,51,60)           115.6893         calculate D2E/DX2 analytically  !
 ! A306  A(14,51,63)           134.0009         calculate D2E/DX2 analytically  !
 ! A307  A(22,51,52)           134.3125         calculate D2E/DX2 analytically  !
 ! A308  A(22,51,54)           146.0086         calculate D2E/DX2 analytically  !
 ! A309  A(22,51,60)           101.6717         calculate D2E/DX2 analytically  !
 ! A310  A(52,51,60)           116.9171         calculate D2E/DX2 analytically  !
 ! A311  A(52,51,63)            97.0938         calculate D2E/DX2 analytically  !
 ! A312  A(54,51,60)            98.4739         calculate D2E/DX2 analytically  !
 ! A313  A(54,51,63)           149.7398         calculate D2E/DX2 analytically  !
 ! A314  A(60,51,63)           100.5058         calculate D2E/DX2 analytically  !
 ! A315  A(12,52,51)            80.3055         calculate D2E/DX2 analytically  !
 ! A316  A(12,52,54)            77.5276         calculate D2E/DX2 analytically  !
 ! A317  A(14,54,52)            86.1684         calculate D2E/DX2 analytically  !
 ! A318  A(14,54,53)           109.34           calculate D2E/DX2 analytically  !
 ! A319  A(14,54,55)           141.1452         calculate D2E/DX2 analytically  !
 ! A320  A(14,54,56)            83.2459         calculate D2E/DX2 analytically  !
 ! A321  A(14,54,57)           132.722          calculate D2E/DX2 analytically  !
 ! A322  A(51,54,53)            88.0644         calculate D2E/DX2 analytically  !
 ! A323  A(51,54,55)           131.91           calculate D2E/DX2 analytically  !
 ! A324  A(51,54,56)           132.9527         calculate D2E/DX2 analytically  !
 ! A325  A(52,54,53)           108.0932         calculate D2E/DX2 analytically  !
 ! A326  A(52,54,55)            82.0369         calculate D2E/DX2 analytically  !
 ! A327  A(52,54,56)           143.9627         calculate D2E/DX2 analytically  !
 ! A328  A(52,54,57)           130.8974         calculate D2E/DX2 analytically  !
 ! A329  A(53,54,55)           109.5148         calculate D2E/DX2 analytically  !
 ! A330  A(53,54,56)           107.9214         calculate D2E/DX2 analytically  !
 ! A331  A(53,54,57)            88.0236         calculate D2E/DX2 analytically  !
 ! A332  A(55,54,56)            84.9339         calculate D2E/DX2 analytically  !
 ! A333  A(27,55,54)            78.6152         calculate D2E/DX2 analytically  !
 ! A334  A(27,55,57)            80.7312         calculate D2E/DX2 analytically  !
 ! A335  A(27,56,54)            78.8694         calculate D2E/DX2 analytically  !
 ! A336  A(27,56,57)            80.5297         calculate D2E/DX2 analytically  !
 ! A337  A(31,57,54)           140.6732         calculate D2E/DX2 analytically  !
 ! A338  A(31,57,55)           137.3118         calculate D2E/DX2 analytically  !
 ! A339  A(31,57,56)            89.1005         calculate D2E/DX2 analytically  !
 ! A340  A(31,57,58)           102.0142         calculate D2E/DX2 analytically  !
 ! A341  A(31,57,64)            60.5856         calculate D2E/DX2 analytically  !
 ! A342  A(54,57,58)            98.4258         calculate D2E/DX2 analytically  !
 ! A343  A(54,57,64)           144.478          calculate D2E/DX2 analytically  !
 ! A344  A(55,57,56)            88.9223         calculate D2E/DX2 analytically  !
 ! A345  A(55,57,58)           117.1173         calculate D2E/DX2 analytically  !
 ! A346  A(55,57,64)            92.8613         calculate D2E/DX2 analytically  !
 ! A347  A(56,57,58)           115.5172         calculate D2E/DX2 analytically  !
 ! A348  A(56,57,64)           135.3475         calculate D2E/DX2 analytically  !
 ! A349  A(58,57,64)           103.1266         calculate D2E/DX2 analytically  !
 ! A350  A(18,62,39)            87.7161         calculate D2E/DX2 analytically  !
 ! A351  A(21,63,51)            87.6712         calculate D2E/DX2 analytically  !
 ! A352  A(30,64,57)            86.3987         calculate D2E/DX2 analytically  !
 ! A353  L(51,54,57,53,-1)     176.088          calculate D2E/DX2 analytically  !
 ! A354  L(51,54,57,53,-2)     179.0998         calculate D2E/DX2 analytically  !
 ! D1    D(3,1,2,12)           176.3839         calculate D2E/DX2 analytically  !
 ! D2    D(3,1,2,21)            92.0796         calculate D2E/DX2 analytically  !
 ! D3    D(4,1,2,12)           -30.4231         calculate D2E/DX2 analytically  !
 ! D4    D(4,1,2,21)          -114.7274         calculate D2E/DX2 analytically  !
 ! D5    D(5,1,2,12)            41.0884         calculate D2E/DX2 analytically  !
 ! D6    D(5,1,2,21)           -43.2159         calculate D2E/DX2 analytically  !
 ! D7    D(8,1,2,12)           -99.5903         calculate D2E/DX2 analytically  !
 ! D8    D(8,1,2,21)           176.1054         calculate D2E/DX2 analytically  !
 ! D9    D(46,1,2,12)          109.2879         calculate D2E/DX2 analytically  !
 ! D10   D(46,1,2,21)           24.9836         calculate D2E/DX2 analytically  !
 ! D11   D(2,1,3,45)          -179.35           calculate D2E/DX2 analytically  !
 ! D12   D(2,1,3,48)           -98.1115         calculate D2E/DX2 analytically  !
 ! D13   D(4,1,3,45)            27.4859         calculate D2E/DX2 analytically  !
 ! D14   D(4,1,3,48)           108.7244         calculate D2E/DX2 analytically  !
 ! D15   D(5,1,3,45)          -109.3381         calculate D2E/DX2 analytically  !
 ! D16   D(5,1,3,48)           -28.0997         calculate D2E/DX2 analytically  !
 ! D17   D(8,1,3,45)            98.1741         calculate D2E/DX2 analytically  !
 ! D18   D(8,1,3,48)           179.4126         calculate D2E/DX2 analytically  !
 ! D19   D(46,1,3,45)          -39.8312         calculate D2E/DX2 analytically  !
 ! D20   D(46,1,3,48)           41.4073         calculate D2E/DX2 analytically  !
 ! D21   D(2,1,4,6)           -109.8743         calculate D2E/DX2 analytically  !
 ! D22   D(2,1,4,9)            -26.7462         calculate D2E/DX2 analytically  !
 ! D23   D(3,1,4,6)             30.4843         calculate D2E/DX2 analytically  !
 ! D24   D(3,1,4,9)            113.6124         calculate D2E/DX2 analytically  !
 ! D25   D(5,1,4,6)            179.9503         calculate D2E/DX2 analytically  !
 ! D26   D(5,1,4,9)            -96.9216         calculate D2E/DX2 analytically  !
 ! D27   D(8,1,4,6)            -40.7203         calculate D2E/DX2 analytically  !
 ! D28   D(8,1,4,9)             42.4078         calculate D2E/DX2 analytically  !
 ! D29   D(46,1,4,6)            97.0814         calculate D2E/DX2 analytically  !
 ! D30   D(46,1,4,9)          -179.7905         calculate D2E/DX2 analytically  !
 ! D31   D(2,1,5,12)           -41.2096         calculate D2E/DX2 analytically  !
 ! D32   D(2,1,5,21)            42.8019         calculate D2E/DX2 analytically  !
 ! D33   D(3,1,5,12)          -112.0301         calculate D2E/DX2 analytically  !
 ! D34   D(3,1,5,21)           -28.0186         calculate D2E/DX2 analytically  !
 ! D35   D(4,1,5,12)            96.7991         calculate D2E/DX2 analytically  !
 ! D36   D(4,1,5,21)          -179.1894         calculate D2E/DX2 analytically  !
 ! D37   D(8,1,5,12)            25.6935         calculate D2E/DX2 analytically  !
 ! D38   D(8,1,5,21)           109.705          calculate D2E/DX2 analytically  !
 ! D39   D(46,1,5,12)          179.3645         calculate D2E/DX2 analytically  !
 ! D40   D(46,1,5,21)          -96.624          calculate D2E/DX2 analytically  !
 ! D41   D(2,1,8,6)            179.2571         calculate D2E/DX2 analytically  !
 ! D42   D(2,1,8,9)             96.349          calculate D2E/DX2 analytically  !
 ! D43   D(3,1,8,6)            -97.2896         calculate D2E/DX2 analytically  !
 ! D44   D(3,1,8,9)            179.8023         calculate D2E/DX2 analytically  !
 ! D45   D(4,1,8,6)             40.7614         calculate D2E/DX2 analytically  !
 ! D46   D(4,1,8,9)            -42.1466         calculate D2E/DX2 analytically  !
 ! D47   D(5,1,8,6)            112.742          calculate D2E/DX2 analytically  !
 ! D48   D(5,1,8,9)             29.834          calculate D2E/DX2 analytically  !
 ! D49   D(46,1,8,6)           -28.9575         calculate D2E/DX2 analytically  !
 ! D50   D(46,1,8,9)          -111.8655         calculate D2E/DX2 analytically  !
 ! D51   D(2,1,46,45)          107.7203         calculate D2E/DX2 analytically  !
 ! D52   D(2,1,46,48)           25.6566         calculate D2E/DX2 analytically  !
 ! D53   D(3,1,46,45)           39.6482         calculate D2E/DX2 analytically  !
 ! D54   D(3,1,46,48)          -42.4155         calculate D2E/DX2 analytically  !
 ! D55   D(4,1,46,45)          -99.5596         calculate D2E/DX2 analytically  !
 ! D56   D(4,1,46,48)          178.3767         calculate D2E/DX2 analytically  !
 ! D57   D(5,1,46,45)          175.3527         calculate D2E/DX2 analytically  !
 ! D58   D(5,1,46,48)           93.289          calculate D2E/DX2 analytically  !
 ! D59   D(8,1,46,45)          -29.8925         calculate D2E/DX2 analytically  !
 ! D60   D(8,1,46,48)         -111.9562         calculate D2E/DX2 analytically  !
 ! D61   D(1,2,12,5)           -41.2454         calculate D2E/DX2 analytically  !
 ! D62   D(1,2,12,11)           29.0877         calculate D2E/DX2 analytically  !
 ! D63   D(1,2,12,14)         -179.5307         calculate D2E/DX2 analytically  !
 ! D64   D(1,2,12,15)           97.1529         calculate D2E/DX2 analytically  !
 ! D65   D(1,2,12,52)         -108.8073         calculate D2E/DX2 analytically  !
 ! D66   D(21,2,12,5)           39.9089         calculate D2E/DX2 analytically  !
 ! D67   D(21,2,12,11)         110.242          calculate D2E/DX2 analytically  !
 ! D68   D(21,2,12,14)         -98.3764         calculate D2E/DX2 analytically  !
 ! D69   D(21,2,12,15)         178.3072         calculate D2E/DX2 analytically  !
 ! D70   D(21,2,12,52)         -27.653          calculate D2E/DX2 analytically  !
 ! D71   D(1,2,21,5)            43.6344         calculate D2E/DX2 analytically  !
 ! D72   D(1,2,21,22)          175.6001         calculate D2E/DX2 analytically  !
 ! D73   D(1,2,21,23)          -97.7414         calculate D2E/DX2 analytically  !
 ! D74   D(1,2,21,48)          -46.8343         calculate D2E/DX2 analytically  !
 ! D75   D(1,2,21,49)          -22.0404         calculate D2E/DX2 analytically  !
 ! D76   D(1,2,21,63)          139.1566         calculate D2E/DX2 analytically  !
 ! D77   D(12,2,21,5)          -40.1295         calculate D2E/DX2 analytically  !
 ! D78   D(12,2,21,22)          91.8363         calculate D2E/DX2 analytically  !
 ! D79   D(12,2,21,23)         178.4948         calculate D2E/DX2 analytically  !
 ! D80   D(12,2,21,48)        -130.5981         calculate D2E/DX2 analytically  !
 ! D81   D(12,2,21,49)        -105.8042         calculate D2E/DX2 analytically  !
 ! D82   D(12,2,21,63)          55.3927         calculate D2E/DX2 analytically  !
 ! D83   D(1,3,45,43)          -96.4178         calculate D2E/DX2 analytically  !
 ! D84   D(1,3,45,44)          -28.2102         calculate D2E/DX2 analytically  !
 ! D85   D(1,3,45,46)           42.327          calculate D2E/DX2 analytically  !
 ! D86   D(1,3,45,47)          156.6387         calculate D2E/DX2 analytically  !
 ! D87   D(1,3,48,21)           50.019          calculate D2E/DX2 analytically  !
 ! D88   D(1,3,48,23)           97.5285         calculate D2E/DX2 analytically  !
 ! D89   D(1,3,48,46)          -43.5798         calculate D2E/DX2 analytically  !
 ! D90   D(1,3,48,49)           31.0284         calculate D2E/DX2 analytically  !
 ! D91   D(1,3,48,50)         -161.5056         calculate D2E/DX2 analytically  !
 ! D92   D(1,4,6,7)            178.4244         calculate D2E/DX2 analytically  !
 ! D93   D(1,4,6,8)             40.6471         calculate D2E/DX2 analytically  !
 ! D94   D(1,4,6,16)           108.3502         calculate D2E/DX2 analytically  !
 ! D95   D(1,4,6,43)           -36.4895         calculate D2E/DX2 analytically  !
 ! D96   D(1,4,6,44)           -95.4862         calculate D2E/DX2 analytically  !
 ! D97   D(9,4,6,7)             95.9346         calculate D2E/DX2 analytically  !
 ! D98   D(9,4,6,8)            -41.8427         calculate D2E/DX2 analytically  !
 ! D99   D(9,4,6,16)            25.8603         calculate D2E/DX2 analytically  !
 ! D100  D(9,4,6,43)          -118.9794         calculate D2E/DX2 analytically  !
 ! D101  D(9,4,6,44)          -177.976          calculate D2E/DX2 analytically  !
 ! D102  D(1,4,9,8)            -41.7818         calculate D2E/DX2 analytically  !
 ! D103  D(1,4,9,10)          -178.7819         calculate D2E/DX2 analytically  !
 ! D104  D(1,4,9,11)            95.8338         calculate D2E/DX2 analytically  !
 ! D105  D(1,4,9,15)            29.7294         calculate D2E/DX2 analytically  !
 ! D106  D(1,4,9,26)          -111.0687         calculate D2E/DX2 analytically  !
 ! D107  D(6,4,9,8)             41.3036         calculate D2E/DX2 analytically  !
 ! D108  D(6,4,9,10)           -95.6965         calculate D2E/DX2 analytically  !
 ! D109  D(6,4,9,11)           178.9191         calculate D2E/DX2 analytically  !
 ! D110  D(6,4,9,15)           112.8147         calculate D2E/DX2 analytically  !
 ! D111  D(6,4,9,26)           -27.9834         calculate D2E/DX2 analytically  !
 ! D112  D(1,5,12,2)            41.3601         calculate D2E/DX2 analytically  !
 ! D113  D(1,5,12,11)          -94.4429         calculate D2E/DX2 analytically  !
 ! D114  D(1,5,12,14)          111.5815         calculate D2E/DX2 analytically  !
 ! D115  D(1,5,12,15)          -26.3779         calculate D2E/DX2 analytically  !
 ! D116  D(1,5,12,52)          179.6355         calculate D2E/DX2 analytically  !
 ! D117  D(21,5,12,2)          -39.5304         calculate D2E/DX2 analytically  !
 ! D118  D(21,5,12,11)        -175.3334         calculate D2E/DX2 analytically  !
 ! D119  D(21,5,12,14)          30.691          calculate D2E/DX2 analytically  !
 ! D120  D(21,5,12,15)        -107.2684         calculate D2E/DX2 analytically  !
 ! D121  D(21,5,12,52)          98.745          calculate D2E/DX2 analytically  !
 ! D122  D(1,5,21,2)           -43.8376         calculate D2E/DX2 analytically  !
 ! D123  D(1,5,21,22)         -133.4218         calculate D2E/DX2 analytically  !
 ! D124  D(1,5,21,23)           32.26           calculate D2E/DX2 analytically  !
 ! D125  D(1,5,21,48)           52.2116         calculate D2E/DX2 analytically  !
 ! D126  D(1,5,21,49)          100.3141         calculate D2E/DX2 analytically  !
 ! D127  D(1,5,21,63)         -175.8254         calculate D2E/DX2 analytically  !
 ! D128  D(12,5,21,2)           40.3061         calculate D2E/DX2 analytically  !
 ! D129  D(12,5,21,22)         -49.2781         calculate D2E/DX2 analytically  !
 ! D130  D(12,5,21,23)         116.4037         calculate D2E/DX2 analytically  !
 ! D131  D(12,5,21,48)         136.3553         calculate D2E/DX2 analytically  !
 ! D132  D(12,5,21,49)        -175.5422         calculate D2E/DX2 analytically  !
 ! D133  D(12,5,21,63)         -91.6817         calculate D2E/DX2 analytically  !
 ! D134  D(4,6,7,13)           -96.8653         calculate D2E/DX2 analytically  !
 ! D135  D(4,6,7,18)          -179.9956         calculate D2E/DX2 analytically  !
 ! D136  D(8,6,7,13)           -24.8856         calculate D2E/DX2 analytically  !
 ! D137  D(8,6,7,18)          -108.0159         calculate D2E/DX2 analytically  !
 ! D138  D(16,6,7,13)           41.0686         calculate D2E/DX2 analytically  !
 ! D139  D(16,6,7,18)          -42.0617         calculate D2E/DX2 analytically  !
 ! D140  D(43,6,7,13)          114.6999         calculate D2E/DX2 analytically  !
 ! D141  D(43,6,7,18)           31.5696         calculate D2E/DX2 analytically  !
 ! D142  D(44,6,7,13)         -178.6546         calculate D2E/DX2 analytically  !
 ! D143  D(44,6,7,18)           98.2151         calculate D2E/DX2 analytically  !
 ! D144  D(4,6,8,1)            -40.9755         calculate D2E/DX2 analytically  !
 ! D145  D(4,6,8,9)             41.6232         calculate D2E/DX2 analytically  !
 ! D146  D(7,6,8,1)           -113.7694         calculate D2E/DX2 analytically  !
 ! D147  D(7,6,8,9)            -31.1707         calculate D2E/DX2 analytically  !
 ! D148  D(16,6,8,1)          -179.7239         calculate D2E/DX2 analytically  !
 ! D149  D(16,6,8,9)           -97.1252         calculate D2E/DX2 analytically  !
 ! D150  D(43,6,8,1)            95.9834         calculate D2E/DX2 analytically  !
 ! D151  D(43,6,8,9)           178.5821         calculate D2E/DX2 analytically  !
 ! D152  D(44,6,8,1)            29.0551         calculate D2E/DX2 analytically  !
 ! D153  D(44,6,8,9)           111.6538         calculate D2E/DX2 analytically  !
 ! D154  D(4,6,16,13)           30.5211         calculate D2E/DX2 analytically  !
 ! D155  D(4,6,16,18)          113.9574         calculate D2E/DX2 analytically  !
 ! D156  D(7,6,16,13)          -40.8906         calculate D2E/DX2 analytically  !
 ! D157  D(7,6,16,18)           42.5457         calculate D2E/DX2 analytically  !
 ! D158  D(8,6,16,13)           98.7402         calculate D2E/DX2 analytically  !
 ! D159  D(8,6,16,18)         -177.8235         calculate D2E/DX2 analytically  !
 ! D160  D(43,6,16,13)        -173.3634         calculate D2E/DX2 analytically  !
 ! D161  D(43,6,16,18)         -89.9271         calculate D2E/DX2 analytically  !
 ! D162  D(44,6,16,13)        -112.8579         calculate D2E/DX2 analytically  !
 ! D163  D(44,6,16,18)         -29.4216         calculate D2E/DX2 analytically  !
 ! D164  D(4,6,43,42)         -105.7682         calculate D2E/DX2 analytically  !
 ! D165  D(4,6,43,45)          -15.6463         calculate D2E/DX2 analytically  !
 ! D166  D(7,6,43,42)           26.099          calculate D2E/DX2 analytically  !
 ! D167  D(7,6,43,45)          116.2209         calculate D2E/DX2 analytically  !
 ! D168  D(8,6,43,42)          179.0826         calculate D2E/DX2 analytically  !
 ! D169  D(8,6,43,45)          -90.7954         calculate D2E/DX2 analytically  !
 ! D170  D(16,6,43,42)          98.2583         calculate D2E/DX2 analytically  !
 ! D171  D(16,6,43,45)        -171.6198         calculate D2E/DX2 analytically  !
 ! D172  D(44,6,43,42)         -44.7367         calculate D2E/DX2 analytically  !
 ! D173  D(44,6,43,45)          45.3852         calculate D2E/DX2 analytically  !
 ! D174  D(4,6,44,42)         -170.6277         calculate D2E/DX2 analytically  !
 ! D175  D(4,6,44,45)           96.5214         calculate D2E/DX2 analytically  !
 ! D176  D(7,6,44,42)          -85.9844         calculate D2E/DX2 analytically  !
 ! D177  D(7,6,44,45)         -178.8353         calculate D2E/DX2 analytically  !
 ! D178  D(8,6,44,42)          119.1172         calculate D2E/DX2 analytically  !
 ! D179  D(8,6,44,45)           26.2663         calculate D2E/DX2 analytically  !
 ! D180  D(16,6,44,42)         -15.7254         calculate D2E/DX2 analytically  !
 ! D181  D(16,6,44,45)        -108.5763         calculate D2E/DX2 analytically  !
 ! D182  D(43,6,44,42)          47.5893         calculate D2E/DX2 analytically  !
 ! D183  D(43,6,44,45)         -45.2616         calculate D2E/DX2 analytically  !
 ! D184  D(6,7,13,10)           95.496          calculate D2E/DX2 analytically  !
 ! D185  D(6,7,13,16)          -41.1179         calculate D2E/DX2 analytically  !
 ! D186  D(6,7,13,26)           27.2277         calculate D2E/DX2 analytically  !
 ! D187  D(6,7,13,37)          179.6248         calculate D2E/DX2 analytically  !
 ! D188  D(6,7,13,38)         -110.8341         calculate D2E/DX2 analytically  !
 ! D189  D(18,7,13,10)         176.7958         calculate D2E/DX2 analytically  !
 ! D190  D(18,7,13,16)          40.182          calculate D2E/DX2 analytically  !
 ! D191  D(18,7,13,26)         108.5276         calculate D2E/DX2 analytically  !
 ! D192  D(18,7,13,37)         -99.0754         calculate D2E/DX2 analytically  !
 ! D193  D(18,7,13,38)         -29.5343         calculate D2E/DX2 analytically  !
 ! D194  D(6,7,18,16)           43.0952         calculate D2E/DX2 analytically  !
 ! D195  D(6,7,18,19)         -100.8121         calculate D2E/DX2 analytically  !
 ! D196  D(6,7,18,20)          -35.5921         calculate D2E/DX2 analytically  !
 ! D197  D(6,7,18,40)          176.0886         calculate D2E/DX2 analytically  !
 ! D198  D(6,7,18,42)          -55.7359         calculate D2E/DX2 analytically  !
 ! D199  D(6,7,18,62)          132.6065         calculate D2E/DX2 analytically  !
 ! D200  D(13,7,18,16)         -41.099          calculate D2E/DX2 analytically  !
 ! D201  D(13,7,18,19)         174.9936         calculate D2E/DX2 analytically  !
 ! D202  D(13,7,18,20)        -119.7863         calculate D2E/DX2 analytically  !
 ! D203  D(13,7,18,40)          91.8944         calculate D2E/DX2 analytically  !
 ! D204  D(13,7,18,42)        -139.9301         calculate D2E/DX2 analytically  !
 ! D205  D(13,7,18,62)          48.4123         calculate D2E/DX2 analytically  !
 ! D206  D(1,8,9,4)             42.1635         calculate D2E/DX2 analytically  !
 ! D207  D(1,8,9,10)           112.5428         calculate D2E/DX2 analytically  !
 ! D208  D(1,8,9,11)           -26.6377         calculate D2E/DX2 analytically  !
 ! D209  D(1,8,9,15)           -95.5783         calculate D2E/DX2 analytically  !
 ! D210  D(1,8,9,26)          -179.0269         calculate D2E/DX2 analytically  !
 ! D211  D(6,8,9,4)            -41.4207         calculate D2E/DX2 analytically  !
 ! D212  D(6,8,9,10)            28.9587         calculate D2E/DX2 analytically  !
 ! D213  D(6,8,9,11)          -110.2218         calculate D2E/DX2 analytically  !
 ! D214  D(6,8,9,15)          -179.1625         calculate D2E/DX2 analytically  !
 ! D215  D(6,8,9,26)            97.3889         calculate D2E/DX2 analytically  !
 ! D216  D(4,9,10,13)           97.5125         calculate D2E/DX2 analytically  !
 ! D217  D(4,9,10,24)         -178.6883         calculate D2E/DX2 analytically  !
 ! D218  D(8,9,10,13)           27.7998         calculate D2E/DX2 analytically  !
 ! D219  D(8,9,10,24)          111.599          calculate D2E/DX2 analytically  !
 ! D220  D(11,9,10,13)         179.7752         calculate D2E/DX2 analytically  !
 ! D221  D(11,9,10,24)         -96.4255         calculate D2E/DX2 analytically  !
 ! D222  D(15,9,10,13)        -110.8243         calculate D2E/DX2 analytically  !
 ! D223  D(15,9,10,24)         -27.0251         calculate D2E/DX2 analytically  !
 ! D224  D(26,9,10,13)         -41.5335         calculate D2E/DX2 analytically  !
 ! D225  D(26,9,10,24)          42.2657         calculate D2E/DX2 analytically  !
 ! D226  D(4,9,11,12)          -98.1481         calculate D2E/DX2 analytically  !
 ! D227  D(4,9,11,27)          179.438          calculate D2E/DX2 analytically  !
 ! D228  D(8,9,11,12)          -29.6204         calculate D2E/DX2 analytically  !
 ! D229  D(8,9,11,27)         -112.0343         calculate D2E/DX2 analytically  !
 ! D230  D(10,9,11,12)         178.5189         calculate D2E/DX2 analytically  !
 ! D231  D(10,9,11,27)          96.105          calculate D2E/DX2 analytically  !
 ! D232  D(15,9,11,12)          40.9289         calculate D2E/DX2 analytically  !
 ! D233  D(15,9,11,27)         -41.4851         calculate D2E/DX2 analytically  !
 ! D234  D(26,9,11,12)         108.9224         calculate D2E/DX2 analytically  !
 ! D235  D(26,9,11,27)          26.5085         calculate D2E/DX2 analytically  !
 ! D236  D(4,9,15,12)           25.7407         calculate D2E/DX2 analytically  !
 ! D237  D(4,9,15,27)          108.3135         calculate D2E/DX2 analytically  !
 ! D238  D(8,9,15,12)           96.1607         calculate D2E/DX2 analytically  !
 ! D239  D(8,9,15,27)          178.7335         calculate D2E/DX2 analytically  !
 ! D240  D(10,9,15,12)        -112.3592         calculate D2E/DX2 analytically  !
 ! D241  D(10,9,15,27)         -29.7864         calculate D2E/DX2 analytically  !
 ! D242  D(11,9,15,12)         -41.1078         calculate D2E/DX2 analytically  !
 ! D243  D(11,9,15,27)          41.465          calculate D2E/DX2 analytically  !
 ! D244  D(26,9,15,12)         179.3328         calculate D2E/DX2 analytically  !
 ! D245  D(26,9,15,27)         -98.0944         calculate D2E/DX2 analytically  !
 ! D246  D(4,9,26,13)          -27.2828         calculate D2E/DX2 analytically  !
 ! D247  D(4,9,26,24)         -110.7965         calculate D2E/DX2 analytically  !
 ! D248  D(8,9,26,13)          -95.9892         calculate D2E/DX2 analytically  !
 ! D249  D(8,9,26,24)         -179.5029         calculate D2E/DX2 analytically  !
 ! D250  D(10,9,26,13)          41.3489         calculate D2E/DX2 analytically  !
 ! D251  D(10,9,26,24)         -42.1648         calculate D2E/DX2 analytically  !
 ! D252  D(11,9,26,13)         112.5474         calculate D2E/DX2 analytically  !
 ! D253  D(11,9,26,24)          29.0337         calculate D2E/DX2 analytically  !
 ! D254  D(15,9,26,13)         179.4044         calculate D2E/DX2 analytically  !
 ! D255  D(15,9,26,24)          95.8907         calculate D2E/DX2 analytically  !
 ! D256  D(9,10,13,7)          -96.8348         calculate D2E/DX2 analytically  !
 ! D257  D(9,10,13,16)         -27.1516         calculate D2E/DX2 analytically  !
 ! D258  D(9,10,13,26)          41.5442         calculate D2E/DX2 analytically  !
 ! D259  D(9,10,13,37)        -179.9163         calculate D2E/DX2 analytically  !
 ! D260  D(9,10,13,38)         109.1429         calculate D2E/DX2 analytically  !
 ! D261  D(24,10,13,7)        -179.2471         calculate D2E/DX2 analytically  !
 ! D262  D(24,10,13,16)       -109.5639         calculate D2E/DX2 analytically  !
 ! D263  D(24,10,13,26)        -40.8681         calculate D2E/DX2 analytically  !
 ! D264  D(24,10,13,37)         97.6714         calculate D2E/DX2 analytically  !
 ! D265  D(24,10,13,38)         26.7306         calculate D2E/DX2 analytically  !
 ! D266  D(9,10,24,17)        -114.7243         calculate D2E/DX2 analytically  !
 ! D267  D(9,10,24,25)        -179.1172         calculate D2E/DX2 analytically  !
 ! D268  D(9,10,24,26)         -42.6812         calculate D2E/DX2 analytically  !
 ! D269  D(9,10,24,28)          95.5115         calculate D2E/DX2 analytically  !
 ! D270  D(9,10,24,29)          29.1991         calculate D2E/DX2 analytically  !
 ! D271  D(13,10,24,17)        -30.7901         calculate D2E/DX2 analytically  !
 ! D272  D(13,10,24,25)        -95.183          calculate D2E/DX2 analytically  !
 ! D273  D(13,10,24,26)         41.253          calculate D2E/DX2 analytically  !
 ! D274  D(13,10,24,28)        179.4458         calculate D2E/DX2 analytically  !
 ! D275  D(13,10,24,29)        113.1333         calculate D2E/DX2 analytically  !
 ! D276  D(9,11,12,2)           26.9206         calculate D2E/DX2 analytically  !
 ! D277  D(9,11,12,5)           96.8206         calculate D2E/DX2 analytically  !
 ! D278  D(9,11,12,14)        -109.6319         calculate D2E/DX2 analytically  !
 ! D279  D(9,11,12,15)         -41.3766         calculate D2E/DX2 analytically  !
 ! D280  D(9,11,12,52)         178.3197         calculate D2E/DX2 analytically  !
 ! D281  D(27,11,12,2)         111.0553         calculate D2E/DX2 analytically  !
 ! D282  D(27,11,12,5)        -179.0447         calculate D2E/DX2 analytically  !
 ! D283  D(27,11,12,14)        -25.4972         calculate D2E/DX2 analytically  !
 ! D284  D(27,11,12,15)         42.758          calculate D2E/DX2 analytically  !
 ! D285  D(27,11,12,52)        -97.5456         calculate D2E/DX2 analytically  !
 ! D286  D(9,11,27,15)          41.8561         calculate D2E/DX2 analytically  !
 ! D287  D(9,11,27,28)         -94.1563         calculate D2E/DX2 analytically  !
 ! D288  D(9,11,27,29)         -26.131          calculate D2E/DX2 analytically  !
 ! D289  D(9,11,27,55)        -179.4629         calculate D2E/DX2 analytically  !
 ! D290  D(9,11,27,56)         114.3881         calculate D2E/DX2 analytically  !
 ! D291  D(12,11,27,15)        -42.6698         calculate D2E/DX2 analytically  !
 ! D292  D(12,11,27,28)       -178.6823         calculate D2E/DX2 analytically  !
 ! D293  D(12,11,27,29)       -110.6569         calculate D2E/DX2 analytically  !
 ! D294  D(12,11,27,55)         96.0112         calculate D2E/DX2 analytically  !
 ! D295  D(12,11,27,56)         29.8622         calculate D2E/DX2 analytically  !
 ! D296  D(2,12,14,51)         101.2535         calculate D2E/DX2 analytically  !
 ! D297  D(2,12,14,54)        -179.8147         calculate D2E/DX2 analytically  !
 ! D298  D(5,12,14,51)          31.7556         calculate D2E/DX2 analytically  !
 ! D299  D(5,12,14,54)         110.6873         calculate D2E/DX2 analytically  !
 ! D300  D(11,12,14,51)       -109.2866         calculate D2E/DX2 analytically  !
 ! D301  D(11,12,14,54)        -30.3549         calculate D2E/DX2 analytically  !
 ! D302  D(15,12,14,51)       -176.8566         calculate D2E/DX2 analytically  !
 ! D303  D(15,12,14,54)        -97.9249         calculate D2E/DX2 analytically  !
 ! D304  D(52,12,14,51)        -36.0281         calculate D2E/DX2 analytically  !
 ! D305  D(52,12,14,54)         42.9036         calculate D2E/DX2 analytically  !
 ! D306  D(2,12,15,9)          -95.129          calculate D2E/DX2 analytically  !
 ! D307  D(2,12,15,27)        -179.1005         calculate D2E/DX2 analytically  !
 ! D308  D(5,12,15,9)          -27.4076         calculate D2E/DX2 analytically  !
 ! D309  D(5,12,15,27)        -111.3791         calculate D2E/DX2 analytically  !
 ! D310  D(11,12,15,9)          41.2695         calculate D2E/DX2 analytically  !
 ! D311  D(11,12,15,27)        -42.702          calculate D2E/DX2 analytically  !
 ! D312  D(14,12,15,9)        -179.1039         calculate D2E/DX2 analytically  !
 ! D313  D(14,12,15,27)         96.9246         calculate D2E/DX2 analytically  !
 ! D314  D(52,12,15,9)         112.4645         calculate D2E/DX2 analytically  !
 ! D315  D(52,12,15,27)         28.493          calculate D2E/DX2 analytically  !
 ! D316  D(2,12,52,51)         -35.2851         calculate D2E/DX2 analytically  !
 ! D317  D(2,12,52,54)        -114.0375         calculate D2E/DX2 analytically  !
 ! D318  D(5,12,52,51)        -102.9017         calculate D2E/DX2 analytically  !
 ! D319  D(5,12,52,54)         178.3459         calculate D2E/DX2 analytically  !
 ! D320  D(11,12,52,51)        174.2996         calculate D2E/DX2 analytically  !
 ! D321  D(11,12,52,54)         95.5472         calculate D2E/DX2 analytically  !
 ! D322  D(14,12,52,51)         35.9554         calculate D2E/DX2 analytically  !
 ! D323  D(14,12,52,54)        -42.797          calculate D2E/DX2 analytically  !
 ! D324  D(15,12,52,51)        104.6542         calculate D2E/DX2 analytically  !
 ! D325  D(15,12,52,54)         25.9018         calculate D2E/DX2 analytically  !
 ! D326  D(7,13,16,6)           41.2727         calculate D2E/DX2 analytically  !
 ! D327  D(7,13,16,18)         -40.6872         calculate D2E/DX2 analytically  !
 ! D328  D(10,13,16,6)         -28.795          calculate D2E/DX2 analytically  !
 ! D329  D(10,13,16,18)       -110.7548         calculate D2E/DX2 analytically  !
 ! D330  D(26,13,16,6)         -97.1855         calculate D2E/DX2 analytically  !
 ! D331  D(26,13,16,18)       -179.1454         calculate D2E/DX2 analytically  !
 ! D332  D(37,13,16,6)         110.2272         calculate D2E/DX2 analytically  !
 ! D333  D(37,13,16,18)         28.2673         calculate D2E/DX2 analytically  !
 ! D334  D(38,13,16,6)        -179.5868         calculate D2E/DX2 analytically  !
 ! D335  D(38,13,16,18)         98.4533         calculate D2E/DX2 analytically  !
 ! D336  D(7,13,26,9)           27.0641         calculate D2E/DX2 analytically  !
 ! D337  D(7,13,26,24)         109.6148         calculate D2E/DX2 analytically  !
 ! D338  D(10,13,26,9)         -41.7355         calculate D2E/DX2 analytically  !
 ! D339  D(10,13,26,24)         40.8152         calculate D2E/DX2 analytically  !
 ! D340  D(16,13,26,9)          95.2793         calculate D2E/DX2 analytically  !
 ! D341  D(16,13,26,24)        177.83           calculate D2E/DX2 analytically  !
 ! D342  D(37,13,26,9)        -111.8766         calculate D2E/DX2 analytically  !
 ! D343  D(37,13,26,24)        -29.3259         calculate D2E/DX2 analytically  !
 ! D344  D(38,13,26,9)         179.1853         calculate D2E/DX2 analytically  !
 ! D345  D(38,13,26,24)        -98.264          calculate D2E/DX2 analytically  !
 ! D346  D(7,13,37,36)         178.9853         calculate D2E/DX2 analytically  !
 ! D347  D(7,13,37,39)         102.7505         calculate D2E/DX2 analytically  !
 ! D348  D(10,13,37,36)        -98.1069         calculate D2E/DX2 analytically  !
 ! D349  D(10,13,37,39)       -174.3417         calculate D2E/DX2 analytically  !
 ! D350  D(16,13,37,36)        110.4479         calculate D2E/DX2 analytically  !
 ! D351  D(16,13,37,39)         34.2131         calculate D2E/DX2 analytically  !
 ! D352  D(26,13,37,36)        -28.9042         calculate D2E/DX2 analytically  !
 ! D353  D(26,13,37,39)       -105.139          calculate D2E/DX2 analytically  !
 ! D354  D(38,13,37,36)         39.9002         calculate D2E/DX2 analytically  !
 ! D355  D(38,13,37,39)        -36.3346         calculate D2E/DX2 analytically  !
 ! D356  D(7,13,38,36)        -109.6946         calculate D2E/DX2 analytically  !
 ! D357  D(7,13,38,39)         -33.0448         calculate D2E/DX2 analytically  !
 ! D358  D(10,13,38,36)         31.4732         calculate D2E/DX2 analytically  !
 ! D359  D(10,13,38,39)        108.123          calculate D2E/DX2 analytically  !
 ! D360  D(16,13,38,36)       -178.7968         calculate D2E/DX2 analytically  !
 ! D361  D(16,13,38,39)       -102.1471         calculate D2E/DX2 analytically  !
 ! D362  D(26,13,38,36)         98.7875         calculate D2E/DX2 analytically  !
 ! D363  D(26,13,38,39)        175.4372         calculate D2E/DX2 analytically  !
 ! D364  D(37,13,38,36)        -39.9904         calculate D2E/DX2 analytically  !
 ! D365  D(37,13,38,39)         36.6594         calculate D2E/DX2 analytically  !
 ! D366  D(12,14,51,22)        -95.1164         calculate D2E/DX2 analytically  !
 ! D367  D(12,14,51,52)         39.4009         calculate D2E/DX2 analytically  !
 ! D368  D(12,14,51,60)        160.1864         calculate D2E/DX2 analytically  !
 ! D369  D(12,14,51,63)        -61.5832         calculate D2E/DX2 analytically  !
 ! D370  D(12,14,54,52)        -44.7649         calculate D2E/DX2 analytically  !
 ! D371  D(12,14,54,53)       -152.6054         calculate D2E/DX2 analytically  !
 ! D372  D(12,14,54,55)         27.5096         calculate D2E/DX2 analytically  !
 ! D373  D(12,14,54,56)        100.7265         calculate D2E/DX2 analytically  !
 ! D374  D(12,14,54,57)        101.47           calculate D2E/DX2 analytically  !
 ! D375  D(9,15,27,11)         -41.7702         calculate D2E/DX2 analytically  !
 ! D376  D(9,15,27,28)          27.9636         calculate D2E/DX2 analytically  !
 ! D377  D(9,15,27,29)          96.0721         calculate D2E/DX2 analytically  !
 ! D378  D(9,15,27,55)        -109.0566         calculate D2E/DX2 analytically  !
 ! D379  D(9,15,27,56)         179.2493         calculate D2E/DX2 analytically  !
 ! D380  D(12,15,27,11)         42.8489         calculate D2E/DX2 analytically  !
 ! D381  D(12,15,27,28)        112.5827         calculate D2E/DX2 analytically  !
 ! D382  D(12,15,27,29)       -179.3088         calculate D2E/DX2 analytically  !
 ! D383  D(12,15,27,55)        -24.4375         calculate D2E/DX2 analytically  !
 ! D384  D(12,15,27,56)        -96.1316         calculate D2E/DX2 analytically  !
 ! D385  D(6,16,18,7)          -43.1539         calculate D2E/DX2 analytically  !
 ! D386  D(6,16,18,19)          20.8972         calculate D2E/DX2 analytically  !
 ! D387  D(6,16,18,20)          96.3006         calculate D2E/DX2 analytically  !
 ! D388  D(6,16,18,40)        -140.2238         calculate D2E/DX2 analytically  !
 ! D389  D(6,16,18,42)          44.6878         calculate D2E/DX2 analytically  !
 ! D390  D(6,16,18,62)        -176.0135         calculate D2E/DX2 analytically  !
 ! D391  D(13,16,18,7)          40.8748         calculate D2E/DX2 analytically  !
 ! D392  D(13,16,18,19)        104.9259         calculate D2E/DX2 analytically  !
 ! D393  D(13,16,18,20)       -179.6707         calculate D2E/DX2 analytically  !
 ! D394  D(13,16,18,40)        -56.1951         calculate D2E/DX2 analytically  !
 ! D395  D(13,16,18,42)        128.7165         calculate D2E/DX2 analytically  !
 ! D396  D(13,16,18,62)        -91.9848         calculate D2E/DX2 analytically  !
 ! D397  D(33,17,24,10)       -117.4239         calculate D2E/DX2 analytically  !
 ! D398  D(33,17,24,25)        -48.6811         calculate D2E/DX2 analytically  !
 ! D399  D(33,17,24,26)        171.2024         calculate D2E/DX2 analytically  !
 ! D400  D(33,17,24,28)         17.4323         calculate D2E/DX2 analytically  !
 ! D401  D(33,17,24,29)         86.9298         calculate D2E/DX2 analytically  !
 ! D402  D(36,17,24,10)        -22.3412         calculate D2E/DX2 analytically  !
[...]
 00013045,-0.00023060,0.00113636,-0.00109697,0.00275687,0.00154708,0.00
 005482,0.00009652,-0.00004990,-0.00000077,0.00001884,0.00000103,0.0000
 0333,0.00002905,0.00002282,0.00024179,-0.00000148,0.00002434,-0.000407
 80,0.00016978,-0.00008056,0.00006260,-0.00024767,-0.00021077,0.0000237
 9,0.00010339,-0.00004502,-0.00005848,0.00003669,0.00000871,0.00000539,
 -0.00006896,0.00006390,0.00007186,-0.00003356,0.00006840,0.00002209,0.
 00020388,0.00020854,-0.00007146,-0.00001645,-0.00001659,0.00027131,-0.
 00006252,-0.00001116,-0.00009672,0.00003430,-0.00010266,0.00004603,0.0
 0043106,-0.00006819,-0.00101308,-0.00017536,-0.00014636,0.00029389,0.0
 0176757,0.00009676,-0.00149963,0.00212549,0.00335939,0.01097140,-0.014
 63248,-0.00920289,-0.02377776,-0.08738069,-0.06154457,-0.00214864,0.00
 210006,0.00166437,0.00130893,-0.00184330,-0.00009299,-0.00015597,0.000
 46289,0.00023079,-0.00068271,0.00051629,0.00002038,-0.00003316,0.00016
 055,-0.00026323,-0.00006348,0.00005533,0.00004932,-0.00007639,-0.00004
 404,0.00001169,0.00024018,-0.00017845,0.00000874,-0.00014339,0.0000118
 6,0.00005956,-0.00005960,-0.00001299,0.00001382,-0.00001380,0.00001653
 ,-0.00001782,0.00000169,0.00001390,-0.00000495,0.00002144,-0.00000414,
 0.00000249,-0.00005777,-0.00003699,0.00004251,0.00000891,-0.00000744,0
 .00004340,0.00000948,0.00000303,0.00000192,-0.00002678,0.00003987,-0.0
 0022703,0.00004119,0.00000478,-0.00000703,-0.00000487,0.00003076,-0.00
 001839,0.00002632,-0.00000780,0.00000515,-0.00033684,-0.00011599,0.000
 21895,-0.00071399,0.15214901,-0.00009396,0.00012425,-0.00011165,-0.000
 00253,0.00003158,0.00004475,0.00003119,0.00014868,0.00004765,-0.000127
 36,0.00003937,0.00005031,-0.00001466,-0.00002385,0.00003371,-0.0004770
 2,0.00038385,0.00040898,-0.00018256,0.00137331,0.00051149,0.00003842,-
 0.00027674,-0.00009495,0.00007041,0.00008674,-0.00003568,0.00009535,0.
 00030912,0.00004253,-0.00001847,-0.00004698,0.00001856,-0.00000441,0.0
 0006980,-0.00012471,-0.00130115,-0.00228895,0.00153587,0.00002245,-0.0
 0000791,0.00002255,0.00000302,0.00006044,-0.00000635,-0.00057724,0.002
 01480,-0.00001834,0.00026037,0.00014303,0.00071695,-0.00431683,0.01664
 676,-0.01552161,-0.00027403,-0.00009321,-0.00017826,0.00095647,0.00548
 328,-0.00741735,-0.00014607,-0.00026770,0.00007753,0.00002882,-0.00002
 097,-0.00000133,-0.00003105,-0.00005825,-0.00002808,-0.00028247,0.0003
 9085,-0.00019475,0.00013354,0.00027117,0.00025299,-0.00000097,0.000048
 66,0.00001615,-0.00007697,-0.00021702,0.00009650,0.00027698,-0.0000987
 2,-0.00000539,-0.00007698,0.00009189,-0.00008732,-0.00004402,0.0002319
 2,-0.00021411,-0.00012988,-0.00036642,-0.00040238,0.00006934,0.0000625
 2,0.00000941,-0.00031235,0.00020380,0.00022928,0.00023739,-0.00014425,
 0.00013970,-0.00007873,0.00038288,0.00017370,-0.00036955,-0.00205477,-
 0.00081587,0.00209060,-0.00203934,0.00009124,-0.00028235,0.00186829,0.
 00322653,0.03253485,-0.00655134,-0.05109874,-0.01832330,-0.05981003,-0
 .03375079,0.00085874,0.00064587,-0.00363850,-0.00002524,-0.00064489,0.
 00038347,-0.00008692,0.00038540,-0.00019030,0.00009973,-0.00012046,-0.
 00011035,0.00001899,-0.00036029,0.00023847,0.00011739,-0.00019851,-0.0
 0002647,-0.00003246,-0.00000011,0.00003454,-0.00064446,0.00065333,-0.0
 0026745,0.00039696,-0.00008733,-0.00016535,0.00003616,-0.00004616,0.00
 009097,-0.00006211,-0.00001044,0.00003211,0.00000139,-0.00001314,0.000
 01092,-0.00000173,-0.00000022,-0.00000194,0.00006664,0.00006427,-0.000
 05790,-0.00005079,0.00003665,-0.00006802,-0.00002404,-0.00001797,0.000
 00322,0.00004992,-0.00005206,0.00035046,-0.00004668,-0.00001977,0.0000
 1611,0.00000581,-0.00000705,0.00003344,0.00002089,-0.00000639,0.000008
 04,-0.00009522,-0.00007669,-0.00015537,-0.01012951,0.04362440,0.105892
 61,-0.00041113,0.00133822,0.00018902,-0.00048584,0.00269653,-0.0000226
 1,-0.00036873,-0.00082277,-0.00062719,0.00012923,-0.00037044,-0.000397
 92,-0.00023754,0.00080060,-0.00035343,-0.00002814,0.00001175,0.0000766
 4,0.00007892,0.00003692,-0.00004042,0.00005631,-0.00004763,-0.00011526
 ,-0.00040779,-0.00008472,0.00003214,0.00003058,0.00000369,0.00002303,0
 .00007120,0.00026011,0.00013435,0.00197835,-0.00009874,-0.00031687,-0.
 00023032,0.00000009,0.00008003,0.00098991,-0.00229618,0.00039408,0.000
 14016,-0.00015373,-0.00003420,0.00005308,0.00001889,-0.00007807,0.0000
 1308,0.00004403,-0.00002981,0.00001478,-0.00003416,-0.00003584,0.00002
 697,-0.00006951,0.00013482,-0.00000729,0.00001951,0.00012443,-0.044565
 40,0.02959311,-0.00489155,0.00287148,-0.01458218,-0.00886543,-0.001745
 56,-0.00007791,0.00126038,0.00024724,-0.00018111,-0.00009775,-0.000034
 34,0.00001381,-0.00007117,0.00004763,-0.00000460,-0.00001190,-0.000231
 39,0.00053188,0.00006024,-0.00030085,0.00013353,-0.00009304,0.00009201
 ,-0.00012114,0.00007032,0.00034058,-0.00019421,0.00025678,-0.00002042,
 0.00090946,0.00061316,0.00008474,-0.00011851,-0.00007061,-0.00008497,-
 0.00013146,-0.00003215,-0.00007254,0.00010077,-0.00010041,-0.00000606,
 0.00001059,-0.00002133,0.00002083,-0.00003256,0.00005129,0.00005308,-0
 .00000438,0.00001802,0.00003135,-0.00001928,0.00000552,0.00003680,0.00
 001477,-0.00004332,-0.00000956,-0.00001948,0.00003719,0.00000008,0.000
 00167,-0.00000436,-0.00029934,0.00017578,-0.00037688,-0.00007474,-0.00
 031207,0.00007110,-0.00001273,0.00008213,0.00019097,-0.00014751,0.0007
 1223,-0.00061325,-0.00032442,0.00018095,-0.00037019,-0.00000131,-0.000
 01275,-0.00003322,0.00365664,-0.00001862,0.00147635,-0.00702306,-0.002
 89808,0.00050025,-0.00046592,-0.00012076,0.00004830,-0.02735641,-0.016
 43999,0.01488313,0.00142103,0.00105907,-0.00058309,0.00046191,0.000089
 04,0.00011255,-0.00081047,-0.00335387,0.00153492,0.00050588,0.00060510
 ,0.00109272,0.00002604,-0.00008562,0.00010950,0.00013265,0.00020097,-0
 .00270310,0.00006320,0.00007267,-0.00000999,-0.00000408,0.00004191,-0.
 00004983,-0.00318621,-0.00330056,0.00176240,0.00003033,-0.00002917,0.0
 0002980,-0.00000600,-0.00000645,0.00003287,0.07517536,-0.00013170,-0.0
 0113737,-0.00063722,0.00137743,-0.00097619,0.00110085,0.00017885,0.000
 03556,-0.00010015,-0.00016565,0.00025343,0.00027356,-0.00113730,0.0019
 3795,0.00118129,-0.00003852,0.00001430,-0.00008110,-0.00002437,0.00000
 699,-0.00000616,-0.00001978,0.00026708,0.00001654,0.00031943,0.0000137
 8,0.00013743,-0.00001532,0.00000657,-0.00005148,-0.00006997,-0.0003195
 8,-0.00021160,0.00004658,-0.00150660,-0.00298885,0.00001989,-0.0000789
 8,0.00011501,0.00029190,-0.00025871,0.00272726,0.00003890,0.00027330,0
 .00032223,-0.00002182,0.00000990,0.00000773,0.00000003,0.00000477,0.00
 001976,0.00002861,0.00001184,0.00003310,-0.00000573,-0.00002954,0.0000
 3901,0.00001083,0.00001209,-0.00001468,0.03550388,-0.03605587,0.005383
 37,-0.01560458,-0.10695853,-0.05374776,0.00124770,0.00032993,-0.001972
 31,-0.00009958,0.00004572,-0.00004374,-0.00000730,0.00000155,0.0000230
 2,0.00001955,-0.00000057,-0.00004856,-0.00020597,-0.00018370,0.0002902
 2,0.00003730,-0.00001617,0.00004297,0.00005929,-0.00005766,0.00009201,
 0.00039963,0.00004176,-0.00002377,-0.00002640,0.00009009,0.00042394,-0
 .00003290,-0.00001140,-0.00004112,0.00012138,0.00000905,-0.00004573,-0
 .00002770,-0.00001790,-0.00003790,0.00000546,-0.00002046,0.00002599,-0
 .00000408,0.00001644,-0.00002969,-0.00000669,-0.00001249,-0.00001591,0
 .00000037,0.00002076,0.00001039,-0.00000959,0.00002993,-0.00004134,-0.
 00000364,0.00000263,0.00001270,0.00001854,-0.00002338,0.00002944,-0.00
 006579,0.00001015,-0.00003787,0.00004780,0.00004745,0.00002282,0.00001
 759,-0.00007202,-0.00000199,-0.00085765,0.00027280,-0.00030823,0.00019
 536,0.00023741,0.00039068,0.00014970,-0.00000729,-0.00007425,-0.001246
 03,-0.00135293,0.00026611,-0.00580258,0.00275459,0.00061543,0.00021541
 ,0.00008161,-0.00025549,-0.02041530,-0.03795671,0.02426107,0.00168707,
 0.00385545,0.00046488,-0.00032078,0.00052053,-0.00016353,-0.00047214,-
 0.00233299,-0.00000276,0.00061086,0.00044929,-0.00035515,-0.00006637,0
 .00033857,-0.00007107,-0.00018253,0.00044799,-0.00016196,0.00009087,0.
 00005538,-0.00003645,-0.00001115,-0.00000807,0.00001417,-0.00194536,0.
 00203006,-0.00071017,0.00004117,-0.00001138,-0.00000150,-0.00000523,-0
 .00001139,0.00000732,0.00663840,0.17536591,0.00054017,-0.00116060,-0.0
 0039882,-0.00004348,-0.00204116,-0.00009264,-0.00067585,-0.00008100,0.
 00039362,0.00004086,0.00015657,0.00015089,-0.00271657,-0.00042185,-0.0
 0156130,0.00004668,-0.00006756,0.00013159,-0.00002503,0.00000583,-0.00
 002682,0.00010445,0.00003095,0.00006362,0.00003424,0.00000345,-0.00008
 723,-0.00001197,-0.00000193,0.00001122,0.00007505,-0.00014386,0.000295
 23,-0.00051125,0.00296355,0.00063579,0.00004599,0.00003791,-0.00004771
 ,-0.00170738,0.00185366,-0.00145984,-0.00002696,-0.00002632,-0.0001426
 9,-0.00001512,0.00000804,-0.00002281,-0.00000298,-0.00001475,0.0000084
 4,-0.00002458,-0.00000599,0.00005144,-0.00002247,0.00005982,-0.0000870
 6,0.00001070,-0.00000987,-0.00006865,-0.00285453,0.00578459,-0.0081160
 6,-0.00932991,-0.05577656,-0.01978170,-0.00121366,-0.00047440,0.002617
 19,-0.00009238,0.00005563,-0.00000974,0.00001273,-0.00001740,0.0000192
 0,-0.00000944,-0.00000085,0.00002851,0.00009185,0.00011522,0.00000542,
 0.00007080,-0.00001427,-0.00003533,-0.00009679,0.00007872,-0.00006982,
 -0.00024150,0.00007501,-0.00008027,0.00000559,-0.00049952,-0.00038745,
 -0.00001064,0.00006034,0.00002345,-0.00000570,0.00007162,0.00002202,0.
 00004552,-0.00003116,0.00005671,0.00000242,-0.00000389,0.00000975,0.00
 000065,0.00001818,-0.00002079,-0.00001411,-0.00000125,-0.00000523,-0.0
 0000774,0.00000427,-0.00000309,-0.00001365,-0.00000817,0.00001291,0.00
 000867,0.00001369,-0.00001110,0.00000238,-0.00000365,0.00000600,0.0001
 6955,-0.00010899,0.00022495,-0.00001503,0.00009162,-0.00008670,0.00004
 573,0.00000692,-0.00009924,-0.00011002,-0.00007934,0.00029960,0.000436
 55,-0.00005446,0.00011821,0.00005507,0.00004931,0.00003313,-0.00161387
 ,0.00195603,0.00058883,0.00293749,0.00121232,-0.00045869,0.00025162,0.
 00003059,-0.00006163,0.01848663,0.02131041,-0.02381341,0.00190898,0.00
 123865,-0.00420548,-0.00021652,-0.00024621,0.00029354,-0.00024513,0.00
 031087,0.00060910,-0.00034582,0.00000401,-0.00055675,-0.00010612,0.000
 04702,-0.00001526,0.00000515,-0.00006540,0.00118147,-0.00001332,-0.000
 03976,0.00001943,0.00000398,-0.00002749,0.00003360,0.00191601,-0.00082
 121,-0.00047982,-0.00000681,0.00002740,-0.00002742,-0.00000037,-0.0000
 0421,-0.00001576,-0.00504277,0.02439361,0.05467909,0.00003131,-0.00048
 719,0.00080674,-0.00017490,-0.00015961,-0.00025223,0.00005924,-0.00056
 771,0.00007268,0.00002470,0.00008264,-0.00019853,0.00007473,0.00016658
 ,-0.00042710,-0.00022350,-0.00005979,0.00002218,0.00019059,0.00027756,
 -0.00017954,0.00000495,0.00012584,-0.00026088,-0.00021391,-0.00035891,
 0.00114912,0.00058664,0.00017219,-0.00027675,0.00055229,0.00019290,-0.
 00080608,-0.00025302,-0.00032334,0.00024127,-0.00074582,-0.00052539,0.
 00059650,-0.00028319,0.00046288,-0.00053689,0.00004495,0.00093643,0.00
 011398,0.00007584,0.00006797,-0.00026917,-0.00019489,0.00007619,0.0000
 8093,0.00007120,-0.00017154,-0.00000945,0.00009622,-0.00039312,0.00056
 646,-0.00000554,0.00009817,0.00049694,0.00113322,0.00197086,-0.0002275
 2,0.00004053,0.00019205,0.00014808,0.00069550,0.00041935,0.00001754,0.
 00085103,0.00126211,-0.00056279,0.00011985,0.00038531,0.00014146,0.000
 35733,0.00000373,-0.00014701,0.00019310,-0.00033844,0.00203946,-0.0026
 7631,-0.00184928,0.00037067,-0.00013306,0.00039592,0.00217026,-0.02708
 603,0.01902292,0.01017838,0.00442869,-0.00118589,0.00532638,-0.0002319
 0,0.00074615,-0.00091177,0.00235489,-0.00044090,-0.00005782,-0.0056459
 3,0.00298481,-0.00450980,-0.00000382,-0.00002247,0.00005139,0.00011997
 ,-0.00019006,0.00016258,0.00005420,-0.00001917,0.00004058,0.00012554,-
 0.00008318,0.00007498,0.00007382,0.00017879,-0.00035426,-0.00006589,-0
 .00009764,0.00023286,0.00008203,-0.00007955,0.00008450,-0.00132612,0.0
 0067693,-0.00137019,0.00034728,-0.00071000,0.00050023,0.00006334,-0.00
 000418,0.00050631,-0.00114526,0.00160465,-0.00190489,-0.00085550,0.000
 97568,0.00011052,0.00018907,-0.00018744,-0.00011835,0.00283281,-0.0036
 9497,0.00048851,-0.00268375,0.00047918,0.00125611,-0.00006121,0.000203
 76,-0.00034843,0.00028772,0.00068567,-0.00083785,0.00008807,0.00029599
 ,-0.00038630,0.00058503,0.00001556,-0.00090118,-0.00011065,-0.00152267
 ,-0.00040613,0.00155676,-0.00142407,-0.00067482,0.00388099,0.00096616,
 -0.00455956,-0.02847240,0.00859474,-0.01496571,-0.00292098,0.00080045,
 -0.00926369,-0.00025776,0.00018321,-0.00046435,0.00010599,-0.00012079,
 0.00010490,0.00017805,-0.00013413,0.00005855,-0.00005287,-0.00009875,0
 .00018937,0.00007867,-0.00037026,0.00003396,0.05318807,-0.00034496,0.0
 0000156,0.00041695,-0.00006943,0.00019497,-0.00013392,0.00029230,-0.00
 086856,0.00017460,0.00021860,-0.00008257,-0.00018941,0.00032469,0.0002
 5563,-0.00091226,-0.00018499,-0.00017983,0.00020229,0.00013432,0.00014
 746,-0.00039206,0.00027685,-0.00000513,-0.00016173,0.00014831,-0.00026
 976,0.00045458,0.00074283,0.00064986,-0.00045852,0.00098004,0.00029962
 ,-0.00079949,-0.00142564,-0.00091245,0.00135689,-0.00064286,-0.0008351
 0,0.00125697,-0.00050699,0.00103018,-0.00029210,0.00101981,0.00037280,
 -0.00080319,0.00007273,0.00025888,-0.00037082,-0.00126098,-0.00108389,
 0.00206632,0.00005348,-0.00015415,0.00052902,0.00008904,-0.00056321,0.
 00083474,0.00011362,0.00034447,0.00036053,0.00269873,0.00141788,-0.000
 70335,-0.00030548,0.00039938,0.00032452,0.00034350,0.00032369,0.000075
 34,-0.00633223,-0.00015875,0.00172896,-0.00100659,0.00032094,0.0014120
 4,0.00040015,0.00047661,-0.00011323,-0.00737014,-0.00231694,0.00390672
 ,0.00249075,-0.00014971,-0.00161665,0.00099616,0.00094886,-0.00303055,
 0.05517997,-0.02802099,0.00108955,-0.02097227,0.00339689,0.00572163,-0
 .00173025,0.00150949,-0.00200564,0.00825852,0.00095425,-0.00339713,0.0
 0094598,0.00005038,-0.00037311,0.00005448,-0.00018758,0.00032018,0.000
 39354,-0.00015349,-0.00080815,-0.00015176,-0.00008337,-0.00027735,0.00
 004285,0.00032303,0.00014302,-0.00001384,0.00035927,-0.00036411,-0.000
 00143,-0.00000520,0.00020228,0.00025031,-0.00026258,0.00029310,-0.0018
 0281,0.00058380,-0.00197082,0.00029648,-0.00106168,0.00045917,0.000159
 28,0.00013186,0.00089457,-0.00153038,0.00222750,-0.00249011,-0.0009635
 5,0.00098932,0.00018790,0.00026449,-0.00028794,-0.00024963,0.00308644,
 -0.00439202,0.00074029,-0.00317231,0.00150050,0.00195636,-0.00010956,0
 .00016932,-0.00039934,0.00136050,0.00107409,-0.00178367,0.00016833,0.0
 0025403,-0.00070299,-0.00277855,0.00118513,-0.00139771,-0.00005875,-0.
 00712733,0.00718127,-0.00171872,-0.00083238,0.01028394,-0.00183862,0.0
 0463117,-0.00086498,0.00416743,-0.00049224,-0.03499676,0.00173961,0.00
 067275,0.00133918,-0.00088266,-0.00021901,0.00041365,-0.00047583,0.000
 07896,-0.00005081,0.00038630,-0.00011878,0.00000121,-0.00006040,-0.000
 13133,0.00014368,-0.00035556,-0.00048469,0.00017728,-0.03008287,0.0239
 0614,0.00009036,0.00007096,-0.00039101,-0.00047280,0.00028665,0.000455
 69,0.00032249,0.00036180,0.00043501,-0.00025262,0.00000220,0.00023060,
 -0.00050529,-0.00021895,-0.00037616,0.00041363,-0.00020112,0.00024162,
 -0.00009944,0.00006601,0.00020349,-0.00008982,-0.00011457,-0.00005147,
 0.00043683,-0.00097745,0.00147593,0.00011293,0.00089979,0.00051626,-0.
 00011798,-0.00033933,0.00014312,0.00044570,0.00092611,-0.00198192,0.00
 017372,0.00035525,-0.00059601,0.00043252,0.00045691,-0.00021904,-0.000
 35975,0.00039096,0.00053018,-0.00000014,-0.00015874,-0.00002315,-0.000
 33243,0.00004699,0.00001213,-0.00024863,0.00003301,-0.00009041,-0.0000
 0650,0.00016970,-0.00027636,-0.00002212,-0.00003920,-0.00015580,0.0000
 8929,-0.00027855,-0.00006468,0.00060652,0.00007185,0.00002052,0.000476
 42,-0.00030142,-0.00036508,-0.00061102,0.00009750,-0.00049715,0.000348
 66,0.00007542,0.00050775,-0.00029770,-0.00029107,-0.00014075,0.0012040
 3,-0.00181581,-0.00113246,0.00307198,0.00236898,0.00036304,-0.00084140
 ,-0.00067811,0.00202236,0.01794446,-0.01380895,-0.01965295,-0.00264915
 ,-0.02461224,-0.00435817,-0.00033114,0.00040886,0.00103470,0.00009138,
 0.00027092,-0.00123510,-0.00591619,0.00448988,-0.00021426,-0.00004492,
 0.00005550,-0.00011706,0.00015311,0.00001970,0.00033067,-0.00004522,0.
 00005018,0.00001627,-0.00004363,-0.00010453,-0.00003925,-0.00004486,-0
 .00007598,0.00008649,-0.00000127,-0.00000054,-0.00004262,-0.00002696,0
 .00003363,-0.00003614,0.00071352,-0.00020394,0.00072201,-0.00001933,0.
 00005894,-0.00011504,-0.00003646,-0.00004884,-0.00030378,-0.00013591,-
 0.00022587,0.00031911,0.00013066,-0.00053516,-0.00025451,0.00003228,-0
 .00006954,0.00012044,-0.00242605,0.00119043,-0.00106660,0.00087017,0.0
 0031758,0.00031700,0.00020417,-0.00009404,0.00023360,-0.00120827,0.000
 75596,-0.00050538,0.00032543,-0.00005931,-0.00052227,0.00122966,0.0003
 8968,-0.00068992,-0.00019963,0.00167930,-0.00287154,0.00549973,0.00388
 763,-0.01606770,0.00677710,0.00214917,-0.00613707,-0.03697536,0.004771
 60,-0.08802130,-0.00702797,0.00376603,-0.00098008,0.00009695,-0.000492
 28,-0.00000657,0.00076480,-0.00028771,0.00033693,-0.00016673,0.0000117
 9,-0.00001265,0.00001290,0.00000991,-0.00003568,0.00073066,-0.00042441
 ,-0.00028766,0.01775464,0.01546085,0.13925987\\-0.00000172,0.00000171,
 -0.00000121,-0.00000013,-0.00000008,-0.00000046,0.00000246,-0.00000143
 ,0.00000114,0.00000035,0.00000065,0.00000074,-0.00000030,-0.00000377,0
 .00000126,-0.00000007,-0.00000093,0.00000309,-0.00000025,0.00000042,-0
 .00000074,0.00000058,0.00000006,-0.00000066,0.00000143,0.00000003,-0.0
 0000005,0.00000067,0.00000150,0.00000001,0.00000072,-0.00000164,-0.000
 00003,-0.00000183,-0.00000062,0.00000249,0.00000123,-0.00000053,-0.000
 00103,-0.00000074,-0.00000089,0.00000015,0.00000086,0.00000033,0.00000
 027,-0.00000027,0.00000024,-0.00000155,-0.00000113,-0.00000135,-0.0000
 0057,-0.00000146,0.00000192,-0.00000123,-0.00000096,0.00000245,0.00000
 427,-0.00000006,0.00000286,-0.00000408,0.00000215,0.00001609,0.0000068
 2,-0.00000014,-0.00000167,-0.00000081,0.00000514,-0.00000451,-0.000002
 09,-0.00000963,-0.00000107,0.00000329,-0.00000169,0.00000143,0.0000027
 3,0.00000061,0.00000028,-0.00000014,-0.00001020,0.00000353,0.00000245,
 0.00000672,-0.00000326,-0.00000187,-0.00000545,-0.00000151,0.00000149,
 -0.00000638,-0.00001764,0.00001392,0.00004253,0.00002812,0.00000788,0.
 00000376,0.00001149,0.00000515,0.00001078,-0.00001259,-0.00001123,-0.0
 0000369,0.,-0.00000655,0.00000122,0.00000026,-0.00000172,0.00000163,-0
 .00000093,-0.00000201,0.00000045,0.00000016,-0.00000169,0.00000172,0.0
 0000090,-0.00000105,0.00000162,-0.00000067,0.00000267,0.00000058,0.000
 00013,-0.00000267,0.00000113,0.00000003,-0.00000125,0.00000084,-0.0000
 0383,-0.00000046,-0.00000074,0.00000408,-0.00000332,0.00000107,0.00000
 233,-0.00000304,-0.00000223,-0.00000612,0.00000106,0.00000058,0.000000
 99,0.00000175,-0.00000078,0.00000082,-0.00000103,-0.00001210,-0.000000
 47,-0.00000904,-0.00000247,0.00000024,0.00000570,-0.00000070,0.0000016
 1,0.00000161,-0.00000249,0.00000065,0.00000213,0.00000134,-0.00000142,
 -0.00000288,0.00000559,0.00000238,-0.00000323,0.00000938,0.00000315,0.
 00001320,0.00000643,0.00000116,-0.00001638,0.00000767,-0.00000639,-0.0
 0001314,-0.00005497,0.00000027,-0.00000602,-0.00000090,-0.00000080,-0.
 00000170,0.00000037,0.00000002,0.00000110,-0.00000174,0.00000024,0.000
 00091,-0.00000097,0.00000157,-0.00000215,0.00000035,0.00000053,-0.0000
 0156,-0.00000236,-0.00000029,-0.00000100,0.00000660,-0.00002025,0.0000
 2234\\\@
 The archive entry for this job was punched.


 I WANT TO KNOW HOW GOD CREATED THE WORLD.  I AM NOT INTERESTED IN
 THIS OR THAT PHENOMENON, IN THE SPECTRUM OF THIS OR THAT ELEMENT.
 I WANT TO KNOW HIS THOUGHTS, THE REST ARE DETAILS.
     -- ALBERT EINSTEIN
 Job cpu time:       6 days 13 hours  3 minutes  7.6 seconds.
 Elapsed time:       0 days  3 hours 16 minutes 48.8 seconds.
 File lengths (MBytes):  RWF=  13858 Int=      0 D2E=      0 Chk=    139 Scr=      2
 Normal termination of Gaussian 16 at Wed Feb 22 18:09:00 2023.
