       N       E                     dE             d eps       ncg     rms          rms(c)
DAV:   1     0.187533050223E+05    0.18753E+05   -0.78374E+05  6112   0.106E+03
DAV:   2     0.311835764080E+03   -0.18441E+05   -0.17674E+05  7680   0.281E+02
DAV:   3    -0.303968025450E+04   -0.33515E+04   -0.33316E+04  6864   0.125E+02
DAV:   4    -0.313575967508E+04   -0.96079E+02   -0.95638E+02  6896   0.243E+01
DAV:   5    -0.313791873712E+04   -0.21591E+01   -0.21552E+01  7360   0.332E+00    0.192E+02
DAV:   6    -0.152653403177E+04    0.16114E+04   -0.30296E+03  6448   0.443E+01    0.874E+01
DAV:   7    -0.168471611070E+04   -0.15818E+03   -0.24042E+02  6720   0.118E+01    0.550E+01
DAV:   8    -0.172593145275E+04   -0.41215E+02   -0.26448E+01  6880   0.511E+00    0.415E+01
DAV:   9    -0.190590397917E+04   -0.17997E+03   -0.31055E+01  6848   0.475E+00    0.340E+01
DAV:  10    -0.215850231357E+04   -0.25260E+03   -0.79332E+01  6880   0.640E+00    0.281E+01
DAV:  11    -0.241090449503E+04   -0.25240E+03   -0.11158E+02  6720   0.758E+00    0.222E+01
DAV:  12    -0.278263134889E+04   -0.37173E+03   -0.33422E+02  6624   0.116E+01    0.137E+01
DAV:  13    -0.289526493807E+04   -0.11263E+03   -0.88434E+01  6976   0.542E+00    0.104E+01
DAV:  14    -0.292528327544E+04   -0.30018E+02   -0.11313E+01  6768   0.251E+00    0.841E+00
DAV:  15    -0.293989410009E+04   -0.14611E+02   -0.35174E+00  6720   0.148E+00    0.679E+00
DAV:  16    -0.294873557341E+04   -0.88415E+01   -0.20035E+00  6608   0.112E+00    0.542E+00
DAV:  17    -0.295588611886E+04   -0.71505E+01   -0.20526E+00  6656   0.106E+00    0.399E+00
DAV:  18    -0.296104777211E+04   -0.51617E+01   -0.10646E+00  6656   0.796E-01    0.272E+00
DAV:  19    -0.296437613326E+04   -0.33284E+01   -0.73584E-01  6528   0.671E-01    0.157E+00
DAV:  20    -0.296505274708E+04   -0.67661E+00   -0.15040E-01  6608   0.393E-01    0.108E+00
DAV:  21    -0.296773912672E+04   -0.26864E+01   -0.13751E-01  6496   0.389E-01    0.666E-01
DAV:  22    -0.296996359190E+04   -0.22245E+01   -0.55004E-02  6768   0.248E-01    0.422E-01
DAV:  23    -0.297120668257E+04   -0.12431E+01   -0.33568E-02  6880   0.185E-01    0.248E-01
DAV:  24    -0.297181674627E+04   -0.61006E+00   -0.12500E-02  6976   0.135E-01    0.139E-01
DAV:  25    -0.297200542145E+04   -0.18868E+00   -0.51107E-03  6912   0.867E-02    0.850E-02
DAV:  26    -0.297206855007E+04   -0.63129E-01   -0.21718E-03  6848   0.589E-02    0.486E-02
DAV:  27    -0.297209129362E+04   -0.22744E-01   -0.80734E-04  6832   0.341E-02    0.274E-02
DAV:  28    -0.297209660308E+04   -0.53095E-02   -0.22635E-04  6992   0.189E-02    0.216E-02
DAV:  29    -0.297210140939E+04   -0.48063E-02   -0.94133E-05  6544   0.117E-02    0.141E-02
DAV:  30    -0.297210369709E+04   -0.22877E-02   -0.30985E-05  6080   0.694E-03    0.946E-03
DAV:  31    -0.297210583938E+04   -0.21423E-02   -0.32825E-05  5968   0.687E-03    0.639E-03
DAV:  32    -0.297210767638E+04   -0.18370E-02   -0.30604E-05  5968   0.654E-03    0.479E-03
DAV:  33    -0.297210823324E+04   -0.55686E-03   -0.81049E-06  5056   0.350E-03    0.259E-03
DAV:  34    -0.297210862773E+04   -0.39449E-03   -0.64564E-06  4928   0.268E-03    0.176E-03
DAV:  35    -0.297210875266E+04   -0.12493E-03   -0.34343E-06  4960   0.191E-03    0.134E-03
DAV:  36    -0.297210878020E+04   -0.27544E-04   -0.12585E-06  4944   0.109E-03    0.845E-04
DAV:  37    -0.297210880165E+04   -0.21454E-04   -0.59514E-07  4896   0.745E-04    0.604E-04
DAV:  38    -0.297210881245E+04   -0.10791E-04   -0.28537E-07  4880   0.494E-04    0.529E-04
DAV:  39    -0.297210881713E+04   -0.46892E-05   -0.12597E-07  4944   0.348E-04
   1 F= -.30069081E+04 E0= -.30069081E+04  d E =-.300691E+04  mag=    -0.0000
       N       E                     dE             d eps       ncg     rms          rms(c)
DAV:   1    -0.296956242959E+04    0.25464E+01   -0.15312E+02  5664   0.263E+00    0.484E+00
DAV:   2    -0.296964664903E+04   -0.84219E-01   -0.49314E+00  6624   0.425E-01    0.541E+00
DAV:   3    -0.296961514120E+04    0.31508E-01   -0.96425E-02  6912   0.650E-02    0.439E+00
DAV:   4    -0.296956199179E+04    0.53149E-01   -0.12531E-01  6608   0.902E-02    0.197E+00
DAV:   5    -0.296955444991E+04    0.75419E-02   -0.19187E-02  6976   0.515E-02    0.476E-01
DAV:   6    -0.296955550337E+04   -0.10535E-02   -0.49657E-03  6720   0.207E-02    0.475E-01
DAV:   7    -0.296955607829E+04   -0.57493E-03   -0.72626E-04  5056   0.693E-03    0.268E-01
DAV:   8    -0.296955741244E+04   -0.13341E-02   -0.80677E-04  5984   0.100E-02    0.839E-02
DAV:   9    -0.296955774781E+04   -0.33537E-03   -0.13935E-04  5344   0.490E-03    0.554E-02
DAV:  10    -0.296955820243E+04   -0.45462E-03   -0.61922E-05  5600   0.440E-03    0.217E-02
DAV:  11    -0.296955851467E+04   -0.31224E-03   -0.51988E-05  5344   0.343E-03    0.204E-02
DAV:  12    -0.296955872927E+04   -0.21460E-03   -0.18781E-05  5296   0.251E-03    0.149E-02
DAV:  13    -0.296955889117E+04   -0.16190E-03   -0.12876E-05  5344   0.222E-03    0.978E-03
DAV:  14    -0.296955897712E+04   -0.85949E-04   -0.37382E-06  5024   0.156E-03    0.284E-03
DAV:  15    -0.296955901618E+04   -0.39060E-04   -0.10038E-06  4944   0.688E-04    0.206E-03
DAV:  16    -0.296955906666E+04   -0.50477E-04   -0.12590E-06  4736   0.758E-04    0.191E-03
DAV:  17    -0.296955908974E+04   -0.23081E-04   -0.58582E-07  4928   0.488E-04    0.207E-03
DAV:  18    -0.296955909732E+04   -0.75790E-05   -0.12967E-07  4928   0.272E-04
   2 F= -.30043620E+04 E0= -.30043620E+04  d E =0.254614E+01  mag=    -0.0000
       N       E                     dE             d eps       ncg     rms          rms(c)
DAV:   1    -0.297214709366E+04   -0.25880E+01   -0.12386E+02  5664   0.240E+00    0.498E+00
DAV:   2    -0.297224521156E+04   -0.98118E-01   -0.34928E+00  6656   0.379E-01    0.465E+00
DAV:   3    -0.297218409344E+04    0.61118E-01   -0.72796E-02  6944   0.583E-02    0.310E+00
DAV:   4    -0.297213827776E+04    0.45816E-01   -0.15085E-01  6656   0.912E-02    0.102E+00
DAV:   5    -0.297213777381E+04    0.50395E-03   -0.12597E-02  6880   0.300E-02    0.385E-01
DAV:   6    -0.297213870705E+04   -0.93324E-03   -0.90222E-04  5488   0.122E-02    0.290E-01
DAV:   7    -0.297213940486E+04   -0.69781E-03   -0.51230E-04  5024   0.866E-03    0.740E-02
DAV:   8    -0.297213988293E+04   -0.47807E-03   -0.13008E-04  5184   0.479E-03    0.686E-02
DAV:   9    -0.297214055825E+04   -0.67532E-03   -0.50568E-05  4992   0.323E-03    0.135E-02
DAV:  10    -0.297214125938E+04   -0.70112E-03   -0.53134E-05  5056   0.347E-03    0.133E-02
DAV:  11    -0.297214168287E+04   -0.42349E-03   -0.25912E-05  5152   0.285E-03    0.121E-02
DAV:  12    -0.297214194297E+04   -0.26010E-03   -0.88753E-06  5072   0.180E-03    0.366E-03
DAV:  13    -0.297214208493E+04   -0.14196E-03   -0.29130E-06  4960   0.982E-04    0.202E-03
DAV:  14    -0.297214217057E+04   -0.85640E-04   -0.14789E-06  4896   0.656E-04    0.190E-03
DAV:  15    -0.297214222342E+04   -0.52856E-04   -0.94190E-07  4784   0.518E-04    0.134E-03
DAV:  16    -0.297214225478E+04   -0.31360E-04   -0.49537E-07  4784   0.385E-04    0.727E-04
DAV:  17    -0.297214227659E+04   -0.21810E-04   -0.47911E-07  4800   0.362E-04    0.362E-04
DAV:  18    -0.297214228481E+04   -0.82164E-05   -0.16299E-07  4832   0.275E-04
   3 F= -.30069420E+04 E0= -.30069420E+04  d E =-.338273E-01  mag=    -0.0000
       N       E                     dE             d eps       ncg     rms          rms(c)
DAV:   1    -0.297214232240E+04   -0.45801E-04   -0.93953E-04  5152   0.652E-03    0.134E-02
DAV:   2    -0.297214232408E+04   -0.16897E-05   -0.28030E-05  5248   0.120E-03    0.123E-02
DAV:   3    -0.297214232404E+04    0.49127E-07   -0.65620E-07  4800   0.263E-04    0.787E-03
DAV:   4    -0.297214232473E+04   -0.69628E-06   -0.13265E-06  4800   0.322E-04    0.318E-03
DAV:   5    -0.297214232497E+04   -0.23976E-06   -0.12491E-07  4832   0.154E-04
   4 F= -.30069420E+04 E0= -.30069420E+04  d E =-.338583E-01  mag=    -0.0000
       N       E                     dE             d eps       ncg     rms          rms(c)
DAV:   1    -0.297214611896E+04   -0.37942E-02   -0.13583E+00  5696   0.485E-01    0.384E-01
DAV:   2    -0.297214812747E+04   -0.20085E-02   -0.30133E-02  6624   0.699E-02    0.537E-01
DAV:   3    -0.297214781376E+04    0.31371E-03   -0.45378E-04  6464   0.914E-03    0.457E-01
DAV:   4    -0.297214804869E+04   -0.23493E-03   -0.11385E-03  6336   0.211E-02    0.240E-01
DAV:   5    -0.297214809397E+04   -0.45278E-04   -0.22608E-04  6560   0.117E-02    0.140E-01
DAV:   6    -0.297214808302E+04    0.10950E-04   -0.78117E-05  6464   0.870E-03    0.113E-01
DAV:   7    -0.297214808012E+04    0.28946E-05   -0.10442E-05  5056   0.265E-03
   5 F= -.30069494E+04 E0= -.30069494E+04  d E =-.737259E-02  mag=    -0.0000
       N       E                     dE             d eps       ncg     rms          rms(c)
DAV:   1    -0.297214787129E+04    0.21173E-03   -0.57747E-01  5696   0.318E-01    0.279E-01
DAV:   2    -0.297214875734E+04   -0.88606E-03   -0.13221E-02  6272   0.470E-02    0.377E-01
DAV:   3    -0.297214860978E+04    0.14756E-03   -0.21426E-04  5568   0.672E-03    0.340E-01
DAV:   4    -0.297214870650E+04   -0.96716E-04   -0.57745E-04  6240   0.159E-02    0.239E-01
DAV:   5    -0.297214877571E+04   -0.69214E-04   -0.16427E-04  5408   0.911E-03    0.152E-01
DAV:   6    -0.297214875600E+04    0.19707E-04   -0.48744E-05  5824   0.772E-03    0.133E-01
DAV:   7    -0.297214875226E+04    0.37462E-05   -0.12682E-05  5120   0.311E-03
   6 F= -.30069511E+04 E0= -.30069511E+04  d E =-.909991E-02  mag=    -0.0000
       N       E                     dE             d eps       ncg     rms          rms(c)
DAV:   1    -0.297215014346E+04   -0.13875E-02   -0.26808E-01  5696   0.208E-01    0.220E-01
DAV:   2    -0.297215062418E+04   -0.48072E-03   -0.71416E-03  6592   0.319E-02    0.257E-01
DAV:   3    -0.297215057081E+04    0.53377E-04   -0.98391E-05  5328   0.446E-03    0.219E-01
DAV:   4    -0.297215058124E+04   -0.10433E-04   -0.25478E-04  5984   0.106E-02    0.103E-01
DAV:   5    -0.297215058189E+04   -0.64680E-06   -0.56191E-05  5248   0.547E-03
   7 F= -.30069536E+04 E0= -.30069536E+04  d E =-.250334E-02  mag=    -0.0000
       N       E                     dE             d eps       ncg     rms          rms(c)
DAV:   1    -0.297215046295E+04    0.11829E-03   -0.29256E-02  6560   0.689E-02    0.805E-02
DAV:   2    -0.297215051824E+04   -0.55285E-04   -0.85948E-04  6528   0.114E-02    0.825E-02
DAV:   3    -0.297215050649E+04    0.11748E-04   -0.11851E-05  5248   0.203E-03    0.616E-02
DAV:   4    -0.297215051132E+04   -0.48350E-05   -0.24776E-05  4928   0.351E-03    0.102E-02
DAV:   5    -0.297215051269E+04   -0.13674E-05   -0.35497E-06  5152   0.182E-03
   8 F= -.30069538E+04 E0= -.30069538E+04  d E =-.265683E-02  mag=    -0.0000
       N       E                     dE             d eps       ncg     rms          rms(c)
DAV:   1    -0.297215093521E+04   -0.42389E-03   -0.56548E-02  5760   0.167E-01    0.855E-02
DAV:   2    -0.297215101706E+04   -0.81849E-04   -0.13328E-03  6688   0.258E-02    0.933E-02
DAV:   3    -0.297215100097E+04    0.16091E-04   -0.31029E-05  5216   0.442E-03    0.646E-02
DAV:   4    -0.297215101233E+04   -0.11358E-04   -0.33570E-05  5408   0.674E-03    0.298E-02
DAV:   5    -0.297215101512E+04   -0.27861E-05   -0.13138E-05  5184   0.443E-03
   9 F= -.30069546E+04 E0= -.30069546E+04  d E =-.800542E-03  mag=    -0.0000
       N       E                     dE             d eps       ncg     rms          rms(c)
DAV:   1    -0.297215094037E+04    0.71959E-04   -0.29914E-02  5824   0.122E-01    0.667E-02
DAV:   2    -0.297215098321E+04   -0.42835E-04   -0.71066E-04  6752   0.190E-02    0.691E-02
DAV:   3    -0.297215097473E+04    0.84774E-05   -0.17033E-05  5248   0.343E-03    0.478E-02
DAV:   4    -0.297215097907E+04   -0.43418E-05   -0.17339E-05  4960   0.521E-03    0.198E-02
DAV:   5    -0.297215097957E+04   -0.49913E-06   -0.72102E-06  4960   0.350E-03
  10 F= -.30069547E+04 E0= -.30069547E+04  d E =-.981678E-03  mag=    -0.0000
       N       E                     dE             d eps       ncg     rms          rms(c)
DAV:   1    -0.297215114221E+04   -0.16314E-03   -0.16787E-02  5824   0.104E-01    0.402E-02
DAV:   2    -0.297215116687E+04   -0.24664E-04   -0.40493E-04  6784   0.158E-02    0.262E-02
DAV:   3    -0.297215116258E+04    0.42884E-05   -0.14798E-05  5184   0.361E-03    0.145E-02
DAV:   4    -0.297215116206E+04    0.52276E-06   -0.61115E-06  5008   0.297E-03    0.617E-03
DAV:   5    -0.297215116260E+04   -0.53633E-06   -0.24286E-06  4864   0.186E-03
  11 F= -.30069550E+04 E0= -.30069550E+04  d E =-.257071E-03  mag=    -0.0000
       N       E                     dE             d eps       ncg     rms          rms(c)
DAV:   1    -0.297215115647E+04    0.55920E-05   -0.29885E-03  6336   0.440E-02    0.172E-02
DAV:   2    -0.297215116144E+04   -0.49693E-05   -0.72460E-05  6048   0.669E-03    0.107E-02
DAV:   3    -0.297215116092E+04    0.51915E-06   -0.28942E-06  5088   0.163E-03    0.570E-03
DAV:   4    -0.297215116110E+04   -0.18324E-06   -0.10493E-06  4704   0.133E-03    0.286E-03
DAV:   5    -0.297215116145E+04   -0.34907E-06   -0.48001E-07  4800   0.905E-04
  12 F= -.30069550E+04 E0= -.30069550E+04  d E =-.287137E-03  mag=    -0.0000
       N       E                     dE             d eps       ncg     rms          rms(c)
DAV:   1    -0.297215124195E+04   -0.80846E-04   -0.14740E-02  5696   0.102E-01    0.360E-02
DAV:   2    -0.297215126304E+04   -0.21091E-04   -0.34337E-04  6656   0.153E-02    0.249E-02
DAV:   3    -0.297215125899E+04    0.40458E-05   -0.10652E-05  5248   0.321E-03    0.146E-02
DAV:   4    -0.297215125742E+04    0.15703E-05   -0.65061E-06  4992   0.300E-03    0.653E-03
DAV:   5    -0.297215125732E+04    0.10245E-06   -0.25555E-06  4800   0.186E-03
  13 F= -.30069552E+04 E0= -.30069552E+04  d E =-.159231E-03  mag=    -0.0000
