       N       E                     dE             d eps       ncg     rms          rms(c)
DAV:   1     0.184852121011E+05    0.18485E+05   -0.76590E+05  6048   0.102E+03
DAV:   2     0.528170497404E+02   -0.18432E+05   -0.17766E+05  8352   0.269E+02
DAV:   3    -0.301461612521E+04   -0.30674E+04   -0.30509E+04  6912   0.117E+02
DAV:   4    -0.308916153340E+04   -0.74545E+02   -0.74267E+02  7488   0.213E+01
DAV:   5    -0.309042874852E+04   -0.12672E+01   -0.12653E+01  7632   0.263E+00    0.191E+02
DAV:   6    -0.149912801476E+04    0.15913E+04   -0.29479E+03  6912   0.431E+01    0.874E+01
DAV:   7    -0.164526721240E+04   -0.14614E+03   -0.26743E+02  7200   0.118E+01    0.555E+01
DAV:   8    -0.167673787169E+04   -0.31471E+02   -0.37542E+01  7056   0.486E+00    0.423E+01
DAV:   9    -0.183878478725E+04   -0.16205E+03   -0.35890E+01  7056   0.463E+00    0.348E+01
DAV:  10    -0.208451623231E+04   -0.24573E+03   -0.73776E+01  7200   0.612E+00    0.286E+01
DAV:  11    -0.232244114290E+04   -0.23792E+03   -0.98507E+01  7056   0.698E+00    0.230E+01
DAV:  12    -0.273497244504E+04   -0.41253E+03   -0.37658E+02  6912   0.122E+01    0.141E+01
DAV:  13    -0.284682505449E+04   -0.11185E+03   -0.87827E+01  7344   0.533E+00    0.105E+01
DAV:  14    -0.287826964262E+04   -0.31445E+02   -0.11436E+01  7056   0.237E+00    0.866E+00
DAV:  15    -0.289475084390E+04   -0.16481E+02   -0.38329E+00  7056   0.146E+00    0.703E+00
DAV:  16    -0.290413636807E+04   -0.93855E+01   -0.19841E+00  7056   0.106E+00    0.564E+00
DAV:  17    -0.291070585254E+04   -0.65695E+01   -0.17946E+00  6912   0.940E-01    0.426E+00
DAV:  18    -0.291549431504E+04   -0.47885E+01   -0.13716E+00  6912   0.765E-01    0.288E+00
DAV:  19    -0.291802642079E+04   -0.25321E+01   -0.62122E-01  6768   0.572E-01    0.164E+00
DAV:  20    -0.291812462569E+04   -0.98205E-01   -0.11894E-01  6768   0.343E-01    0.107E+00
DAV:  21    -0.292037861140E+04   -0.22540E+01   -0.75847E-02  6768   0.325E-01    0.640E-01
DAV:  22    -0.292193852653E+04   -0.15599E+01   -0.28514E-02  7056   0.193E-01    0.418E-01
DAV:  23    -0.292323742596E+04   -0.12989E+01   -0.23634E-02  7056   0.149E-01    0.229E-01
DAV:  24    -0.292379429837E+04   -0.55687E+00   -0.94744E-03  7200   0.111E-01    0.135E-01
DAV:  25    -0.292396832213E+04   -0.17402E+00   -0.36283E-03  7056   0.713E-02    0.790E-02
DAV:  26    -0.292403775800E+04   -0.69436E-01   -0.12856E-03  7344   0.429E-02    0.447E-02
DAV:  27    -0.292405536573E+04   -0.17608E-01   -0.47074E-04  7200   0.260E-02    0.251E-02
DAV:  28    -0.292405949657E+04   -0.41308E-02   -0.15908E-04  7488   0.158E-02    0.190E-02
DAV:  29    -0.292406226385E+04   -0.27673E-02   -0.61539E-05  6624   0.102E-02    0.113E-02
DAV:  30    -0.292406338020E+04   -0.11164E-02   -0.29327E-05  6480   0.721E-03    0.805E-03
DAV:  31    -0.292406492474E+04   -0.15445E-02   -0.20015E-05  6336   0.597E-03    0.546E-03
DAV:  32    -0.292406587273E+04   -0.94799E-03   -0.83774E-06  5904   0.390E-03    0.406E-03
DAV:  33    -0.292406638115E+04   -0.50841E-03   -0.30298E-06  5472   0.269E-03    0.310E-03
DAV:  34    -0.292406673534E+04   -0.35420E-03   -0.23652E-06  5616   0.234E-03    0.260E-03
DAV:  35    -0.292406684197E+04   -0.10662E-03    0.13314E-06  5616   0.125E-03    0.242E-03
DAV:  36    -0.292406688848E+04   -0.46508E-04    0.23046E-06  5616   0.717E-04    0.233E-03
DAV:  37    -0.292406691798E+04   -0.29509E-04    0.25893E-06  5472   0.520E-04    0.226E-03
DAV:  38    -0.292406693393E+04   -0.15946E-04    0.26891E-06  5472   0.437E-04    0.222E-03
DAV:  39    -0.292406694087E+04   -0.69412E-05    0.27889E-06  5472   0.251E-04
   1 F= -.29590653E+04 E0= -.29590653E+04  d E =-.295907E+04  mag=    -0.0000
       N       E                     dE             d eps       ncg     rms          rms(c)
DAV:   1    -0.292406694926E+04   -0.15328E-04   -0.13808E-01  6336   0.176E-01    0.420E-02
DAV:   2    -0.292406695117E+04   -0.19087E-05   -0.29115E-04  6624   0.905E-03    0.229E-02
DAV:   3    -0.292406694399E+04    0.71818E-05   -0.20165E-05  6912   0.278E-03
   2 F= -.29590653E+04 E0= -.29590653E+04  d E =-.180422E-04  mag=    -0.0000
       N       E                     dE             d eps       ncg     rms          rms(c)
DAV:   1    -0.292406616126E+04    0.78991E-03   -0.27830E-01  6336   0.255E-01    0.120E-01
DAV:   2    -0.292406610502E+04    0.56242E-04   -0.12211E-03  6624   0.192E-02    0.567E-02
DAV:   3    -0.292406604909E+04    0.55929E-04   -0.15085E-04  6912   0.858E-03    0.220E-02
DAV:   4    -0.292406604053E+04    0.85607E-05   -0.36126E-05  6768   0.365E-03
   3 F= -.29590643E+04 E0= -.29590643E+04  d E =0.100993E-02  mag=    -0.0000
       N       E                     dE             d eps       ncg     rms          rms(c)
DAV:   1    -0.292406705034E+04   -0.10013E-02   -0.27701E-01  6336   0.263E-01    0.105E-01
DAV:   2    -0.292406703390E+04    0.16443E-04   -0.13842E-03  6624   0.201E-02    0.549E-02
DAV:   3    -0.292406699713E+04    0.36770E-04   -0.16669E-04  6912   0.956E-03    0.256E-02
DAV:   4    -0.292406699114E+04    0.59933E-05   -0.43836E-05  6768   0.408E-03
   4 F= -.29590652E+04 E0= -.29590652E+04  d E =-.933744E-03  mag=    -0.0000
       N       E                     dE             d eps       ncg     rms          rms(c)
DAV:   1    -0.292406608909E+04    0.90804E-03   -0.27692E-01  6336   0.255E-01    0.111E-01
DAV:   2    -0.292406613717E+04   -0.48078E-04   -0.21590E-03  6624   0.199E-02    0.570E-02
DAV:   3    -0.292406607655E+04    0.60615E-04   -0.15045E-04  6624   0.762E-03    0.232E-02
DAV:   4    -0.292406606884E+04    0.77128E-05   -0.33397E-05  6768   0.319E-03
   5 F= -.29590643E+04 E0= -.29590643E+04  d E =0.890683E-03  mag=    -0.0000
       N       E                     dE             d eps       ncg     rms          rms(c)
DAV:   1    -0.292406681928E+04   -0.74273E-03   -0.27700E-01  6336   0.210E-01    0.113E-01
DAV:   2    -0.292406684543E+04   -0.26148E-04   -0.17245E-03  6624   0.159E-02    0.552E-02
DAV:   3    -0.292406680248E+04    0.42944E-04   -0.14514E-04  6336   0.685E-03    0.192E-02
DAV:   4    -0.292406680084E+04    0.16414E-05   -0.27081E-05  6912   0.273E-03
   6 F= -.29590652E+04 E0= -.29590652E+04  d E =-.833584E-03  mag=    -0.0000
       N       E                     dE             d eps       ncg     rms          rms(c)
DAV:   1    -0.292406677881E+04    0.23670E-04   -0.27455E-01  6336   0.208E-01    0.751E-02
DAV:   2    -0.292406681865E+04   -0.39840E-04   -0.11826E-03  6048   0.129E-02    0.394E-02
DAV:   3    -0.292406680011E+04    0.18548E-04   -0.58657E-05  6624   0.404E-03    0.123E-02
DAV:   4    -0.292406680031E+04   -0.20157E-06   -0.11937E-05  6336   0.161E-03
   7 F= -.29590651E+04 E0= -.29590651E+04  d E =0.109691E-03  mag=    -0.0000
       N       E                     dE             d eps       ncg     rms          rms(c)
DAV:   1    -0.292406664857E+04    0.15154E-03   -0.27408E-01  6336   0.223E-01    0.826E-02
DAV:   2    -0.292406671803E+04   -0.69460E-04   -0.16686E-03  6336   0.161E-02    0.453E-02
DAV:   3    -0.292406669837E+04    0.19661E-04   -0.84294E-05  6912   0.550E-03    0.154E-02
DAV:   4    -0.292406669960E+04   -0.12381E-05   -0.17404E-05  6624   0.220E-03
   8 F= -.29590651E+04 E0= -.29590651E+04  d E =-.223521E-04  mag=    -0.0000
       N       E                     dE             d eps       ncg     rms          rms(c)
DAV:   1    -0.292406678878E+04   -0.90417E-04   -0.27337E-01  6336   0.212E-01    0.675E-02
DAV:   2    -0.292406684013E+04   -0.51344E-04   -0.11990E-03  6336   0.126E-02    0.371E-02
DAV:   3    -0.292406683168E+04    0.84506E-05   -0.45032E-05  6624   0.341E-03
   9 F= -.29590652E+04 E0= -.29590652E+04  d E =-.112530E-03  mag=    -0.0000
       N       E                     dE             d eps       ncg     rms          rms(c)
DAV:   1    -0.292406603630E+04    0.80382E-03   -0.27821E-01  6336   0.225E-01    0.130E-01
DAV:   2    -0.292406598325E+04    0.53053E-04   -0.16698E-03  6336   0.181E-02    0.624E-02
DAV:   3    -0.292406591276E+04    0.70488E-04   -0.17731E-04  6624   0.812E-03    0.216E-02
DAV:   4    -0.292406590302E+04    0.97450E-05   -0.32565E-05  6912   0.320E-03
  10 F= -.29590641E+04 E0= -.29590641E+04  d E =0.104909E-02  mag=    -0.0000
       N       E                     dE             d eps       ncg     rms          rms(c)
DAV:   1    -0.292406664396E+04   -0.73120E-03   -0.21669E-01  6336   0.182E-01    0.145E-01
DAV:   2    -0.292406662845E+04    0.15519E-04   -0.23871E-03  6624   0.209E-02    0.722E-02
DAV:   3    -0.292406658122E+04    0.47221E-04   -0.16395E-04  6624   0.712E-03    0.331E-02
DAV:   4    -0.292406657562E+04    0.56069E-05   -0.40551E-05  6624   0.351E-03
  11 F= -.29590649E+04 E0= -.29590649E+04  d E =-.728345E-03  mag=    -0.0000
       N       E                     dE             d eps       ncg     rms          rms(c)
DAV:   1    -0.292406676520E+04   -0.18398E-03   -0.15431E-01  6336   0.866E-02    0.126E-01
DAV:   2    -0.292406655259E+04    0.21261E-03   -0.14356E-03  6624   0.185E-02    0.519E-02
DAV:   3    -0.292406653225E+04    0.20346E-04   -0.15216E-04  6336   0.535E-03    0.339E-02
DAV:   4    -0.292406652591E+04    0.63395E-05   -0.28911E-05  6624   0.268E-03
  12 F= -.29590649E+04 E0= -.29590649E+04  d E =-.707164E-05  mag=    -0.0000
       N       E                     dE             d eps       ncg     rms          rms(c)
DAV:   1    -0.292406714776E+04   -0.61551E-03   -0.15337E-01  6336   0.906E-02    0.122E-01
DAV:   2    -0.292406695659E+04    0.19118E-03   -0.13465E-03  6912   0.187E-02    0.527E-02
DAV:   3    -0.292406693683E+04    0.19754E-04   -0.13318E-04  6624   0.587E-03    0.339E-02
DAV:   4    -0.292406693146E+04    0.53667E-05   -0.24528E-05  6624   0.316E-03
  13 F= -.29590648E+04 E0= -.29590648E+04  d E =0.577247E-04  mag=    -0.0000
       N       E                     dE             d eps       ncg     rms          rms(c)
DAV:   1    -0.292406673732E+04    0.19951E-03   -0.11925E-01  6336   0.117E-01    0.118E-01
DAV:   2    -0.292406669147E+04    0.45854E-04   -0.57679E-04  6624   0.104E-02    0.596E-02
DAV:   3    -0.292406666617E+04    0.25293E-04   -0.98898E-05  6624   0.491E-03    0.537E-02
DAV:   4    -0.292406665564E+04    0.10535E-04   -0.32400E-05  6336   0.335E-03    0.111E-02
DAV:   5    -0.292406665570E+04   -0.61351E-07   -0.14981E-06  6336   0.160E-03
  14 F= -.29590650E+04 E0= -.29590650E+04  d E =-.207417E-03  mag=    -0.0000
       N       E                     dE             d eps       ncg     rms          rms(c)
DAV:   1    -0.292406668984E+04   -0.34199E-04   -0.97404E-02  6336   0.125E-01    0.674E-02
DAV:   2    -0.292406669525E+04   -0.54187E-05   -0.27864E-04  6336   0.713E-03    0.415E-02
DAV:   3    -0.292406670248E+04   -0.72260E-05   -0.18326E-05  6624   0.265E-03
  15 F= -.29590651E+04 E0= -.29590651E+04  d E =-.276027E-04  mag=    -0.0000
       N       E                     dE             d eps       ncg     rms          rms(c)
DAV:   1    -0.292406606922E+04    0.62603E-03   -0.11328E-01  6336   0.143E-01    0.130E-01
DAV:   2    -0.292406593343E+04    0.13580E-03   -0.11591E-03  6624   0.177E-02    0.109E-01
DAV:   3    -0.292406588013E+04    0.53295E-04   -0.74075E-05  6912   0.476E-03    0.548E-02
DAV:   4    -0.292406584811E+04    0.32020E-04   -0.67265E-05  6624   0.508E-03    0.193E-02
DAV:   5    -0.292406584635E+04    0.17598E-05   -0.71815E-06  6912   0.207E-03
  16 F= -.29590641E+04 E0= -.29590641E+04  d E =0.999540E-03  mag=    -0.0000
       N       E                     dE             d eps       ncg     rms          rms(c)
DAV:   1    -0.292406687227E+04   -0.10242E-02   -0.11010E-01  6336   0.152E-01    0.111E-01
DAV:   2    -0.292406682968E+04    0.42596E-04   -0.11496E-03  6336   0.176E-02    0.956E-02
DAV:   3    -0.292406680851E+04    0.21170E-04   -0.53498E-05  6912   0.409E-03    0.568E-02
DAV:   4    -0.292406680035E+04    0.81533E-05   -0.67021E-05  6336   0.495E-03
  17 F= -.29590652E+04 E0= -.29590652E+04  d E =-.109799E-02  mag=    -0.0000
       N       E                     dE             d eps       ncg     rms          rms(c)
DAV:   1    -0.292406592749E+04    0.88101E-03   -0.11091E-01  6336   0.152E-01    0.118E-01
DAV:   2    -0.292406582662E+04    0.10087E-03   -0.92284E-04  6912   0.169E-02    0.965E-02
DAV:   3    -0.292406578022E+04    0.46404E-04   -0.68138E-05  6912   0.582E-03    0.489E-02
DAV:   4    -0.292406575421E+04    0.26011E-04   -0.44778E-05  6624   0.541E-03    0.108E-02
DAV:   5    -0.292406575535E+04   -0.11462E-05   -0.57171E-06  6336   0.213E-03
  18 F= -.29590640E+04 E0= -.29590640E+04  d E =0.111887E-02  mag=    -0.0000
       N       E                     dE             d eps       ncg     rms          rms(c)
DAV:   1    -0.292406697348E+04   -0.12193E-02   -0.10683E-01  6336   0.144E-01    0.105E-01
DAV:   2    -0.292406692551E+04    0.47973E-04   -0.69657E-04  6624   0.146E-02    0.810E-02
DAV:   3    -0.292406690490E+04    0.20608E-04   -0.60641E-05  6912   0.554E-03    0.369E-02
DAV:   4    -0.292406690513E+04   -0.23079E-06   -0.23446E-05  6336   0.367E-03
  19 F= -.29590651E+04 E0= -.29590651E+04  d E =-.105722E-02  mag=    -0.0000
       N       E                     dE             d eps       ncg     rms          rms(c)
DAV:   1    -0.292406600876E+04    0.89614E-03   -0.11005E-01  6336   0.150E-01    0.113E-01
DAV:   2    -0.292406592377E+04    0.84985E-04   -0.12269E-03  6336   0.177E-02    0.924E-02
DAV:   3    -0.292406588217E+04    0.41602E-04   -0.61989E-05  6912   0.473E-03    0.503E-02
DAV:   4    -0.292406585339E+04    0.28780E-04   -0.71245E-05  6336   0.555E-03    0.168E-02
DAV:   5    -0.292406585150E+04    0.18894E-05   -0.64318E-06  6624   0.215E-03
  20 F= -.29590641E+04 E0= -.29590641E+04  d E =0.974942E-03  mag=    -0.0000
       N       E                     dE             d eps       ncg     rms          rms(c)
DAV:   1    -0.292406681572E+04   -0.96233E-03   -0.10827E-01  6336   0.127E-01    0.117E-01
DAV:   2    -0.292406676978E+04    0.45941E-04   -0.87245E-04  6336   0.144E-02    0.994E-02
DAV:   3    -0.292406674214E+04    0.27643E-04   -0.51908E-05  6912   0.392E-03    0.509E-02
DAV:   4    -0.292406673170E+04    0.10435E-04   -0.54143E-05  6336   0.462E-03    0.182E-02
DAV:   5    -0.292406672951E+04    0.21922E-05   -0.61421E-06  6912   0.193E-03
  21 F= -.29590651E+04 E0= -.29590651E+04  d E =-.988526E-03  mag=    -0.0000
       N       E                     dE             d eps       ncg     rms          rms(c)
DAV:   1    -0.292406678439E+04   -0.52686E-04   -0.10046E-01  6336   0.121E-01    0.787E-02
DAV:   2    -0.292406677817E+04    0.62151E-05   -0.40590E-04  6336   0.903E-03    0.572E-02
DAV:   3    -0.292406677306E+04    0.51130E-05   -0.25541E-05  6624   0.276E-03
  22 F= -.29590650E+04 E0= -.29590650E+04  d E =0.131594E-03  mag=    -0.0000
