       N       E                     dE             d eps       ncg     rms          rms(c)
DAV:   1     0.184475445553E+05    0.18448E+05   -0.76596E+05  5984   0.106E+03
DAV:   2     0.365921108624E+03   -0.18082E+05   -0.17323E+05  7552   0.281E+02
DAV:   3    -0.297439900707E+04   -0.33403E+04   -0.33196E+04  6720   0.125E+02
DAV:   4    -0.307181607787E+04   -0.97417E+02   -0.96973E+02  6752   0.247E+01
DAV:   5    -0.307399417146E+04   -0.21781E+01   -0.21744E+01  7248   0.337E+00    0.190E+02
DAV:   6    -0.149040239393E+04    0.15836E+04   -0.30219E+03  6384   0.449E+01    0.877E+01
DAV:   7    -0.163402451559E+04   -0.14362E+03   -0.24676E+02  6704   0.126E+01    0.546E+01
DAV:   8    -0.166546812136E+04   -0.31444E+02   -0.29259E+01  6800   0.534E+00    0.425E+01
DAV:   9    -0.182139371350E+04   -0.15593E+03   -0.32184E+01  6752   0.486E+00    0.343E+01
DAV:  10    -0.206629275171E+04   -0.24490E+03   -0.70845E+01  6720   0.629E+00    0.283E+01
DAV:  11    -0.232243226198E+04   -0.25614E+03   -0.11341E+02  6560   0.782E+00    0.225E+01
DAV:  12    -0.268296589958E+04   -0.36053E+03   -0.29626E+02  6432   0.114E+01    0.144E+01
DAV:  13    -0.282230143372E+04   -0.13934E+03   -0.11485E+02  6736   0.635E+00    0.105E+01
DAV:  14    -0.285781880123E+04   -0.35517E+02   -0.15501E+01  6672   0.278E+00    0.855E+00
DAV:  15    -0.287525346872E+04   -0.17435E+02   -0.47671E+00  6592   0.170E+00    0.691E+00
DAV:  16    -0.288389823018E+04   -0.86448E+01   -0.20428E+00  6576   0.116E+00    0.564E+00
DAV:  17    -0.289028585106E+04   -0.63876E+01   -0.16536E+00  6496   0.939E-01    0.442E+00
DAV:  18    -0.289507286102E+04   -0.47870E+01   -0.13418E+00  6496   0.806E-01    0.314E+00
DAV:  19    -0.289920445922E+04   -0.41316E+01   -0.83260E-01  6368   0.635E-01    0.192E+00
DAV:  20    -0.289896208149E+04    0.24238E+00   -0.24315E-01  6288   0.401E-01    0.126E+00
DAV:  21    -0.289983990844E+04   -0.87783E+00   -0.48369E-02  6624   0.264E-01    0.858E-01
DAV:  22    -0.290237787781E+04   -0.25380E+01   -0.60131E-02  6320   0.274E-01    0.518E-01
DAV:  23    -0.290409766260E+04   -0.17198E+01   -0.26237E-02  6688   0.168E-01    0.340E-01
DAV:  24    -0.290490454775E+04   -0.80689E+00   -0.12577E-02  6736   0.111E-01    0.211E-01
DAV:  25    -0.290539350067E+04   -0.48895E+00   -0.66290E-03  6784   0.871E-02    0.114E-01
DAV:  26    -0.290555112892E+04   -0.15763E+00   -0.23937E-03  6800   0.553E-02    0.702E-02
DAV:  27    -0.290558965195E+04   -0.38523E-01   -0.79215E-04  6752   0.305E-02    0.396E-02
DAV:  28    -0.290560473653E+04   -0.15085E-01   -0.28781E-04  6384   0.208E-02    0.203E-02
DAV:  29    -0.290560885432E+04   -0.41178E-02   -0.16236E-04  6512   0.159E-02    0.143E-02
DAV:  30    -0.290561060104E+04   -0.17467E-02   -0.57716E-05  5920   0.101E-02    0.996E-03
DAV:  31    -0.290561149014E+04   -0.88909E-03   -0.19774E-05  5568   0.580E-03    0.610E-03
DAV:  32    -0.290561205616E+04   -0.56602E-03   -0.13554E-05  5024   0.464E-03    0.422E-03
DAV:  33    -0.290561276503E+04   -0.70887E-03   -0.14225E-05  5136   0.433E-03    0.340E-03
DAV:  34    -0.290561300232E+04   -0.23729E-03   -0.54815E-06  4880   0.256E-03    0.233E-03
DAV:  35    -0.290561325760E+04   -0.25528E-03   -0.39220E-06  4800   0.182E-03    0.110E-03
DAV:  36    -0.290561336339E+04   -0.10579E-03   -0.23110E-06  4848   0.140E-03    0.957E-04
DAV:  37    -0.290561339242E+04   -0.29028E-04   -0.79036E-07  4944   0.806E-04    0.683E-04
DAV:  38    -0.290561341033E+04   -0.17914E-04   -0.29837E-07  4880   0.552E-04    0.353E-04
DAV:  39    -0.290561342131E+04   -0.10976E-04   -0.15533E-07  4880   0.425E-04    0.273E-04
DAV:  40    -0.290561342491E+04   -0.36057E-05   -0.32068E-08  4896   0.242E-04
   1 F= -.29403140E+04 E0= -.29403140E+04  d E =-.294031E+04  mag=     2.0000
       N       E                     dE             d eps       ncg     rms          rms(c)
DAV:   1    -0.290555626466E+04    0.57157E-01   -0.10918E+01  5568   0.300E+00    0.139E+00
DAV:   2    -0.290557337495E+04   -0.17110E-01   -0.32260E-01  6560   0.490E-01    0.684E-01
DAV:   3    -0.290556708846E+04    0.62865E-02   -0.15883E-02  6848   0.134E-01    0.474E-01
DAV:   4    -0.290556533893E+04    0.17495E-02   -0.70925E-03  6544   0.897E-02    0.200E-01
DAV:   5    -0.290556494303E+04    0.39589E-03   -0.23614E-03  6672   0.533E-02    0.122E-01
DAV:   6    -0.290556513672E+04   -0.19369E-03   -0.63485E-04  6640   0.300E-02    0.711E-02
DAV:   7    -0.290556531404E+04   -0.17732E-03   -0.89990E-05  6608   0.118E-02    0.424E-02
DAV:   8    -0.290556558047E+04   -0.26643E-03   -0.64001E-05  5568   0.124E-02    0.196E-02
DAV:   9    -0.290556571817E+04   -0.13769E-03   -0.26427E-05  5600   0.962E-03    0.783E-03
DAV:  10    -0.290556583304E+04   -0.11487E-03   -0.21289E-05  5248   0.689E-03    0.742E-03
DAV:  11    -0.290556594725E+04   -0.11421E-03   -0.46774E-06  4992   0.517E-03    0.481E-03
DAV:  12    -0.290556611256E+04   -0.16531E-03   -0.15153E-05  5104   0.726E-03    0.251E-03
DAV:  13    -0.290556617609E+04   -0.63527E-04   -0.95082E-06  5024   0.387E-03    0.203E-03
DAV:  14    -0.290556621281E+04   -0.36728E-04   -0.30254E-06  4864   0.202E-03    0.221E-03
DAV:  15    -0.290556623000E+04   -0.17190E-04   -0.79197E-07  4864   0.848E-04    0.193E-03
DAV:  16    -0.290556626017E+04   -0.30168E-04   -0.88742E-07  4720   0.850E-04    0.953E-04
DAV:  17    -0.290556627576E+04   -0.15585E-04   -0.60166E-07  4848   0.649E-04    0.844E-04
DAV:  18    -0.290556627891E+04   -0.31501E-05   -0.68828E-08  4928   0.275E-04
   2 F= -.29402667E+04 E0= -.29402667E+04  d E =0.472828E-01  mag=     2.0000
       N       E                     dE             d eps       ncg     rms          rms(c)
DAV:   1    -0.290561624577E+04   -0.49970E-01   -0.58266E+00  5568   0.218E+00    0.103E+00
DAV:   2    -0.290562492336E+04   -0.86776E-02   -0.16595E-01  6608   0.357E-01    0.487E-01
DAV:   3    -0.290562161763E+04    0.33057E-02   -0.83740E-03  6784   0.979E-02    0.329E-01
DAV:   4    -0.290562084287E+04    0.77476E-03   -0.40678E-03  6544   0.687E-02    0.134E-01
DAV:   5    -0.290562071555E+04    0.12732E-03   -0.11904E-03  6640   0.372E-02    0.903E-02
DAV:   6    -0.290562075965E+04   -0.44101E-04   -0.27002E-04  6720   0.201E-02    0.494E-02
DAV:   7    -0.290562081836E+04   -0.58710E-04   -0.45456E-05  5760   0.900E-03    0.304E-02
DAV:   8    -0.290562090733E+04   -0.88975E-04   -0.29908E-05  5264   0.971E-03    0.144E-02
DAV:   9    -0.290562095815E+04   -0.50820E-04   -0.14818E-05  5168   0.691E-03    0.594E-03
DAV:  10    -0.290562101139E+04   -0.53239E-04   -0.97493E-06  4960   0.501E-03    0.576E-03
DAV:  11    -0.290562106637E+04   -0.54977E-04   -0.18798E-06  4816   0.397E-03    0.361E-03
DAV:  12    -0.290562114018E+04   -0.73816E-04   -0.44122E-06  4976   0.466E-03    0.197E-03
DAV:  13    -0.290562118026E+04   -0.40073E-04   -0.41804E-06  4832   0.311E-03    0.154E-03
DAV:  14    -0.290562120100E+04   -0.20739E-04   -0.19810E-06  4784   0.161E-03    0.198E-03
DAV:  15    -0.290562120692E+04   -0.59234E-05   -0.29913E-07  4960   0.529E-04
   3 F= -.29403217E+04 E0= -.29403217E+04  d E =-.774422E-02  mag=     2.0000
       N       E                     dE             d eps       ncg     rms          rms(c)
DAV:   1    -0.290560560551E+04    0.15595E-01   -0.78235E+00  5536   0.253E+00    0.912E-01
DAV:   2    -0.290561994221E+04   -0.14337E-01   -0.19108E-01  6704   0.365E-01    0.378E-01
DAV:   3    -0.290561749032E+04    0.24519E-02   -0.47630E-03  6816   0.779E-02    0.222E-01
DAV:   4    -0.290561685192E+04    0.63840E-03   -0.28904E-03  6624   0.560E-02    0.118E-01
DAV:   5    -0.290561678860E+04    0.63327E-04   -0.70080E-04  6640   0.274E-02    0.595E-02
DAV:   6    -0.290561680363E+04   -0.15033E-04   -0.21660E-04  6624   0.182E-02    0.336E-02
DAV:   7    -0.290561682465E+04   -0.21024E-04   -0.29291E-05  5648   0.688E-03    0.189E-02
DAV:   8    -0.290561685520E+04   -0.30549E-04   -0.10222E-05  5136   0.499E-03    0.102E-02
DAV:   9    -0.290561688330E+04   -0.28096E-04   -0.54609E-06  4944   0.408E-03    0.388E-03
DAV:  10    -0.290561691417E+04   -0.30875E-04   -0.27533E-06  4784   0.314E-03    0.326E-03
DAV:  11    -0.290561694887E+04   -0.34693E-04   -0.17963E-06  4784   0.280E-03    0.209E-03
DAV:  12    -0.290561697434E+04   -0.25476E-04   -0.20374E-06  4752   0.197E-03    0.151E-03
DAV:  13    -0.290561698556E+04   -0.11212E-04   -0.64263E-07  4800   0.890E-04    0.146E-03
DAV:  14    -0.290561699073E+04   -0.51783E-05   -0.14981E-07  4848   0.378E-04
   4 F= -.29403178E+04 E0= -.29403178E+04  d E =0.387894E-02  mag=     2.0000
       N       E                     dE             d eps       ncg     rms          rms(c)
DAV:   1    -0.290562386788E+04   -0.68823E-02   -0.24283E+00  5536   0.141E+00    0.507E-01
DAV:   2    -0.290562851859E+04   -0.46507E-02   -0.61179E-02  6656   0.204E-01    0.215E-01
DAV:   3    -0.290562773601E+04    0.78258E-03   -0.14799E-03  6720   0.432E-02    0.129E-01
DAV:   4    -0.290562750940E+04    0.22661E-03   -0.89944E-04  6672   0.312E-02    0.676E-02
DAV:   5    -0.290562749931E+04    0.10091E-04   -0.23311E-04  6672   0.157E-02    0.331E-02
DAV:   6    -0.290562751608E+04   -0.16772E-04   -0.69516E-05  6528   0.102E-02    0.195E-02
DAV:   7    -0.290562753046E+04   -0.14373E-04   -0.97602E-06  5120   0.378E-03    0.107E-02
DAV:   8    -0.290562754612E+04   -0.15661E-04   -0.30992E-06  4832   0.277E-03    0.579E-03
DAV:   9    -0.290562755906E+04   -0.12946E-04   -0.20938E-06  4800   0.239E-03    0.216E-03
DAV:  10    -0.290562756983E+04   -0.10764E-04   -0.12069E-06  4704   0.166E-03    0.206E-03
DAV:  11    -0.290562757970E+04   -0.98751E-05   -0.50148E-07  4752   0.116E-03
   5 F= -.29403282E+04 E0= -.29403282E+04  d E =-.652193E-02  mag=     2.0000
       N       E                     dE             d eps       ncg     rms          rms(c)
DAV:   1    -0.290562730154E+04    0.26828E-03   -0.41184E+00  5504   0.188E+00    0.507E-01
DAV:   2    -0.290563471170E+04   -0.74102E-02   -0.91488E-02  6704   0.264E-01    0.271E-01
DAV:   3    -0.290563394541E+04    0.76629E-03   -0.20304E-03  6832   0.504E-02    0.171E-01
DAV:   4    -0.290563369843E+04    0.24698E-03   -0.13693E-03  6544   0.471E-02    0.540E-02
DAV:   5    -0.290563372327E+04   -0.24845E-04   -0.39303E-04  6688   0.227E-02    0.431E-02
DAV:   6    -0.290563372308E+04    0.19505E-06   -0.87244E-05  6688   0.102E-02
   6 F= -.29403351E+04 E0= -.29403351E+04  d E =-.690964E-02  mag=     2.0000
       N       E                     dE             d eps       ncg     rms          rms(c)
DAV:   1    -0.290563388606E+04   -0.16279E-03   -0.87988E-02  5680   0.275E-01    0.662E-02
DAV:   2    -0.290563404444E+04   -0.15838E-03   -0.18679E-03  6688   0.378E-02    0.421E-02
DAV:   3    -0.290563403330E+04    0.11142E-04   -0.44480E-05  6720   0.705E-03    0.267E-02
DAV:   4    -0.290563403828E+04   -0.49849E-05   -0.27142E-05  5840   0.641E-03    0.935E-03
DAV:   5    -0.290563404476E+04   -0.64815E-05   -0.81629E-06  4912   0.325E-03
   7 F= -.29403353E+04 E0= -.29403353E+04  d E =-.711870E-02  mag=     2.0000
       N       E                     dE             d eps       ncg     rms          rms(c)
DAV:   1    -0.290563337119E+04    0.66709E-03   -0.36009E+00  5504   0.172E+00    0.446E-01
DAV:   2    -0.290563991671E+04   -0.65455E-02   -0.79918E-02  6512   0.238E-01    0.231E-01
DAV:   3    -0.290563919623E+04    0.72048E-03   -0.14908E-03  6768   0.396E-02    0.150E-01
DAV:   4    -0.290563894962E+04    0.24661E-03   -0.97296E-04  6624   0.339E-02    0.698E-02
DAV:   5    -0.290563897076E+04   -0.21141E-04   -0.32728E-04  6640   0.181E-02    0.327E-02
DAV:   6    -0.290563900832E+04   -0.37556E-04   -0.67754E-05  6720   0.895E-03    0.200E-02
DAV:   7    -0.290563904308E+04   -0.34759E-04   -0.11418E-05  5136   0.353E-03    0.114E-02
DAV:   8    -0.290563908015E+04   -0.37073E-04   -0.35936E-06  4928   0.312E-03    0.500E-03
DAV:   9    -0.290563909855E+04   -0.18398E-04   -0.24497E-06  4848   0.241E-03    0.279E-03
DAV:  10    -0.290563911331E+04   -0.14765E-04   -0.11574E-06  4816   0.174E-03    0.219E-03
DAV:  11    -0.290563912308E+04   -0.97731E-05   -0.52719E-07  4880   0.905E-04
   8 F= -.29403417E+04 E0= -.29403417E+04  d E =-.634146E-02  mag=     2.0000
       N       E                     dE             d eps       ncg     rms          rms(c)
DAV:   1    -0.290563918180E+04   -0.68492E-04   -0.42993E-03  6512   0.594E-02    0.157E-02
DAV:   2    -0.290563919782E+04   -0.16016E-04   -0.95744E-05  6720   0.823E-03    0.795E-03
DAV:   3    -0.290563920265E+04   -0.48305E-05   -0.15818E-06  4864   0.136E-03    0.519E-03
DAV:   4    -0.290563920919E+04   -0.65356E-05   -0.11640E-06  4736   0.118E-03    0.257E-03
DAV:   5    -0.290563921447E+04   -0.52838E-05   -0.54808E-07  4768   0.742E-04
   9 F= -.29403417E+04 E0= -.29403417E+04  d E =-.638919E-02  mag=     2.0000
       N       E                     dE             d eps       ncg     rms          rms(c)
DAV:   1    -0.290564164319E+04   -0.24340E-02   -0.14994E+00  5536   0.110E+00    0.269E-01
DAV:   2    -0.290564430640E+04   -0.26632E-02   -0.31934E-02  6528   0.151E-01    0.144E-01
DAV:   3    -0.290564408840E+04    0.21800E-03   -0.63519E-04  6688   0.246E-02    0.905E-02
DAV:   4    -0.290564401668E+04    0.71722E-04   -0.44598E-04  6608   0.241E-02    0.388E-02
DAV:   5    -0.290564402609E+04   -0.94107E-05   -0.11088E-04  6608   0.109E-02    0.213E-02
DAV:   6    -0.290564402851E+04   -0.24216E-05   -0.27183E-05  5664   0.585E-03
  10 F= -.29403474E+04 E0= -.29403474E+04  d E =-.568957E-02  mag=     2.0000
       N       E                     dE             d eps       ncg     rms          rms(c)
DAV:   1    -0.290564303094E+04    0.99515E-03   -0.10696E+00  5536   0.932E-01    0.230E-01
DAV:   2    -0.290564493885E+04   -0.19079E-02   -0.23047E-02  6576   0.128E-01    0.121E-01
DAV:   3    -0.290564478018E+04    0.15868E-03   -0.45305E-04  6736   0.209E-02    0.763E-02
DAV:   4    -0.290564473316E+04    0.47019E-04   -0.32138E-04  6448   0.206E-02    0.326E-02
DAV:   5    -0.290564474405E+04   -0.10889E-04   -0.80475E-05  6672   0.954E-03    0.183E-02
DAV:   6    -0.290564475034E+04   -0.62910E-05   -0.20422E-05  5296   0.509E-03
  11 F= -.29403489E+04 E0= -.29403489E+04  d E =-.715208E-02  mag=     2.0000
       N       E                     dE             d eps       ncg     rms          rms(c)
DAV:   1    -0.290564697229E+04   -0.22282E-02   -0.11542E+00  5536   0.966E-01    0.251E-01
DAV:   2    -0.290564911435E+04   -0.21421E-02   -0.24779E-02  6464   0.134E-01    0.123E-01
DAV:   3    -0.290564895306E+04    0.16130E-03   -0.43361E-04  6864   0.225E-02    0.754E-02
DAV:   4    -0.290564891870E+04    0.34361E-04   -0.24939E-04  6592   0.188E-02    0.361E-02
DAV:   5    -0.290564893058E+04   -0.11888E-04   -0.80473E-05  6736   0.979E-03    0.176E-02
DAV:   6    -0.290564893768E+04   -0.70991E-05   -0.17133E-05  5152   0.505E-03
  12 F= -.29403538E+04 E0= -.29403538E+04  d E =-.486483E-02  mag=     2.0000
       N       E                     dE             d eps       ncg     rms          rms(c)
DAV:   1    -0.290564795966E+04    0.97093E-03   -0.10743E+00  5536   0.932E-01    0.243E-01
DAV:   2    -0.290564995489E+04   -0.19952E-02   -0.23110E-02  6528   0.129E-01    0.118E-01
DAV:   3    -0.290564979964E+04    0.15525E-03   -0.40184E-04  6768   0.218E-02    0.725E-02
DAV:   4    -0.290564975735E+04    0.42283E-04   -0.23242E-04  6576   0.184E-02    0.343E-02
DAV:   5    -0.290564976465E+04   -0.72967E-05   -0.75724E-05  6656   0.971E-03
  13 F= -.29403552E+04 E0= -.29403552E+04  d E =-.634689E-02  mag=     2.0000
       N       E                     dE             d eps       ncg     rms          rms(c)
DAV:   1    -0.290565165677E+04   -0.18994E-02   -0.12315E+00  5536   0.987E-01    0.238E-01
DAV:   2    -0.290565386755E+04   -0.22108E-02   -0.25356E-02  6480   0.134E-01    0.138E-01
DAV:   3    -0.290565372137E+04    0.14618E-03   -0.42746E-04  6720   0.220E-02    0.837E-02
DAV:   4    -0.290565369375E+04    0.27626E-04   -0.31546E-04  6560   0.214E-02    0.301E-02
DAV:   5    -0.290565371358E+04   -0.19829E-04   -0.83009E-05  6608   0.971E-03    0.180E-02
DAV:   6    -0.290565372229E+04   -0.87124E-05   -0.18706E-05  5008   0.516E-03
  14 F= -.29403599E+04 E0= -.29403599E+04  d E =-.464452E-02  mag=     2.0000
       N       E                     dE             d eps       ncg     rms          rms(c)
DAV:   1    -0.290565332713E+04    0.38645E-03   -0.10344E+00  5504   0.905E-01    0.218E-01
DAV:   2    -0.290565519982E+04   -0.18727E-02   -0.21410E-02  6416   0.123E-01    0.126E-01
DAV:   3    -0.290565507289E+04    0.12693E-03   -0.35311E-04  6768   0.200E-02    0.763E-02
DAV:   4    -0.290565504541E+04    0.27481E-04   -0.25450E-04  6576   0.192E-02    0.280E-02
DAV:   5    -0.290565506096E+04   -0.15557E-04   -0.69970E-05  6592   0.901E-03    0.163E-02
DAV:   6    -0.290565506851E+04   -0.75483E-05   -0.15066E-05  4912   0.467E-03
  15 F= -.29403619E+04 E0= -.29403619E+04  d E =-.662163E-02  mag=     2.0000
       N       E                     dE             d eps       ncg     rms          rms(c)
DAV:   1    -0.290565689476E+04   -0.18338E-02   -0.15599E+00  5504   0.108E+00    0.301E-01
DAV:   2    -0.290565976034E+04   -0.28656E-02   -0.34152E-02  6496   0.150E-01    0.146E-01
DAV:   3    -0.290565951633E+04    0.24400E-03   -0.62757E-04  6720   0.258E-02    0.927E-02
DAV:   4    -0.290565945887E+04    0.57466E-04   -0.29245E-04  6560   0.190E-02    0.478E-02
DAV:   5    -0.290565946250E+04   -0.36334E-05   -0.11576E-04  6656   0.121E-02    0.198E-02
DAV:   6    -0.290565946467E+04   -0.21685E-05   -0.27860E-05  5584   0.612E-03
  16 F= -.29403671E+04 E0= -.29403671E+04  d E =-.522034E-02  mag=     2.0000
       N       E                     dE             d eps       ncg     rms          rms(c)
DAV:   1    -0.290565929173E+04    0.17077E-03   -0.24047E-01  5568   0.424E-01    0.121E-01
DAV:   2    -0.290565973822E+04   -0.44649E-03   -0.53354E-03  6544   0.591E-02    0.567E-02
DAV:   3    -0.290565969906E+04    0.39160E-04   -0.94167E-05  6736   0.104E-02    0.360E-02
DAV:   4    -0.290565969318E+04    0.58819E-05   -0.45034E-05  6448   0.793E-03    0.184E-02
DAV:   5    -0.290565969706E+04   -0.38792E-05   -0.17670E-05  5328   0.533E-03
  17 F= -.29403676E+04 E0= -.29403676E+04  d E =-.577667E-02  mag=     2.0000
       N       E                     dE             d eps       ncg     rms          rms(c)
DAV:   1    -0.290566151671E+04   -0.18235E-02   -0.64283E-01  5536   0.701E-01    0.184E-01
DAV:   2    -0.290566263857E+04   -0.11219E-02   -0.13230E-02  6592   0.956E-02    0.108E-01
DAV:   3    -0.290566254574E+04    0.92823E-04   -0.25380E-04  6720   0.156E-02    0.652E-02
DAV:   4    -0.290566253029E+04    0.15457E-04   -0.20898E-04  6640   0.161E-02    0.255E-02
DAV:   5    -0.290566254225E+04   -0.11965E-04   -0.45139E-05  6256   0.706E-03    0.136E-02
DAV:   6    -0.290566254874E+04   -0.64906E-05   -0.11071E-05  5088   0.362E-03
  18 F= -.29403710E+04 E0= -.29403710E+04  d E =-.340486E-02  mag=     2.0000
       N       E                     dE             d eps       ncg     rms          rms(c)
DAV:   1    -0.290566252063E+04    0.21618E-04   -0.83277E-01  5504   0.796E-01    0.208E-01
DAV:   2    -0.290566395473E+04   -0.14341E-02   -0.17069E-02  6448   0.109E-01    0.122E-01
DAV:   3    -0.290566382844E+04    0.12629E-03   -0.32140E-04  6672   0.176E-02    0.741E-02
DAV:   4    -0.290566379757E+04    0.30869E-04   -0.26664E-04  6592   0.181E-02    0.295E-02
DAV:   5    -0.290566381227E+04   -0.14698E-04   -0.57819E-05  6528   0.798E-03    0.156E-02
DAV:   6    -0.290566382262E+04   -0.10359E-04   -0.13983E-05  5152   0.409E-03    0.964E-03
DAV:   7    -0.290566383188E+04   -0.92578E-05   -0.23050E-06  4768   0.164E-03
  19 F= -.29403729E+04 E0= -.29403729E+04  d E =-.531836E-02  mag=     2.0000
       N       E                     dE             d eps       ncg     rms          rms(c)
DAV:   1    -0.290566347328E+04    0.34934E-03   -0.16835E-01  5568   0.359E-01    0.934E-02
DAV:   2    -0.290566376536E+04   -0.29207E-03   -0.34865E-03  6544   0.491E-02    0.553E-02
DAV:   3    -0.290566373869E+04    0.26671E-04   -0.65722E-05  6320   0.801E-03    0.336E-02
DAV:   4    -0.290566373368E+04    0.50124E-05   -0.55575E-05  6288   0.827E-03    0.126E-02
DAV:   5    -0.290566373959E+04   -0.59183E-05   -0.11230E-05  4912   0.370E-03
  20 F= -.29403731E+04 E0= -.29403731E+04  d E =-.550953E-02  mag=     2.0000
       N       E                     dE             d eps       ncg     rms          rms(c)
DAV:   1    -0.290566524484E+04   -0.15112E-02   -0.11061E+00  5504   0.898E-01    0.233E-01
DAV:   2    -0.290566718906E+04   -0.19442E-02   -0.22526E-02  6448   0.122E-01    0.121E-01
DAV:   3    -0.290566705283E+04    0.13623E-03   -0.39554E-04  6704   0.203E-02    0.774E-02
DAV:   4    -0.290566702394E+04    0.28893E-04   -0.18479E-04  6624   0.158E-02    0.366E-02
DAV:   5    -0.290566703302E+04   -0.90796E-05   -0.74687E-05  6672   0.979E-03
  21 F= -.29403771E+04 E0= -.29403771E+04  d E =-.399456E-02  mag=     2.0000
       N       E                     dE             d eps       ncg     rms          rms(c)
DAV:   1    -0.290566514822E+04    0.18757E-02   -0.20958E+00  5504   0.124E+00    0.324E-01
DAV:   2    -0.290566884602E+04   -0.36978E-02   -0.42792E-02  6368   0.168E-01    0.166E-01
DAV:   3    -0.290566858955E+04    0.25647E-03   -0.75846E-04  6800   0.282E-02    0.107E-01
DAV:   4    -0.290566852922E+04    0.60335E-04   -0.34394E-04  6608   0.219E-02    0.508E-02
DAV:   5    -0.290566854616E+04   -0.16941E-04   -0.14353E-04  6576   0.142E-02    0.224E-02
DAV:   6    -0.290566856007E+04   -0.13910E-04   -0.38518E-05  6416   0.707E-03    0.145E-02
DAV:   7    -0.290566857337E+04   -0.13298E-04   -0.65100E-06  4928   0.270E-03    0.876E-03
DAV:   8    -0.290566859014E+04   -0.16771E-04   -0.16347E-06  4768   0.259E-03    0.393E-03
DAV:   9    -0.290566860154E+04   -0.11405E-04   -0.14218E-06  4816   0.231E-03    0.175E-03
DAV:  10    -0.290566860914E+04   -0.75997E-05   -0.10078E-06  4832   0.167E-03
  22 F= -.29403797E+04 E0= -.29403797E+04  d E =-.653692E-02  mag=     2.0000
       N       E                     dE             d eps       ncg     rms          rms(c)
DAV:   1    -0.290567079640E+04   -0.21949E-02   -0.10186E+00  5504   0.849E-01    0.232E-01
DAV:   2    -0.290567260543E+04   -0.18090E-02   -0.21542E-02  6480   0.118E-01    0.123E-01
DAV:   3    -0.290567246084E+04    0.14459E-03   -0.43185E-04  6768   0.203E-02    0.758E-02
DAV:   4    -0.290567243117E+04    0.29667E-04   -0.22711E-04  6528   0.169E-02    0.369E-02
DAV:   5    -0.290567243724E+04   -0.60672E-05   -0.74941E-05  6624   0.899E-03
  23 F= -.29403841E+04 E0= -.29403841E+04  d E =-.439448E-02  mag=     2.0000
       N       E                     dE             d eps       ncg     rms          rms(c)
DAV:   1    -0.290567227927E+04    0.15190E-03   -0.60561E-01  5504   0.656E-01    0.184E-01
DAV:   2    -0.290567337579E+04   -0.10965E-02   -0.13193E-02  6464   0.914E-02    0.949E-02
DAV:   3    -0.290567328901E+04    0.86786E-04   -0.25942E-04  6736   0.160E-02    0.586E-02
DAV:   4    -0.290567327366E+04    0.15342E-04   -0.14751E-04  6528   0.139E-02    0.275E-02
DAV:   5    -0.290567328072E+04   -0.70568E-05   -0.43904E-05  6048   0.740E-03
  24 F= -.29403854E+04 E0= -.29403854E+04  d E =-.567533E-02  mag=     2.0000
       N       E                     dE             d eps       ncg     rms          rms(c)
DAV:   1    -0.290567500081E+04   -0.17271E-02   -0.10298E+00  5504   0.859E-01    0.242E-01
DAV:   2    -0.290567687464E+04   -0.18738E-02   -0.22142E-02  6512   0.119E-01    0.143E-01
DAV:   3    -0.290567669008E+04    0.18456E-03   -0.41231E-04  6752   0.204E-02    0.865E-02
DAV:   4    -0.290567664119E+04    0.48881E-04   -0.40190E-04  6656   0.210E-02    0.349E-02
DAV:   5    -0.290567666700E+04   -0.25800E-04   -0.82289E-05  6624   0.933E-03    0.190E-02
DAV:   6    -0.290567668619E+04   -0.19198E-04   -0.19917E-05  5440   0.493E-03    0.119E-02
DAV:   7    -0.290567670290E+04   -0.16706E-04   -0.34633E-06  4832   0.196E-03    0.698E-03
DAV:   8    -0.290567671951E+04   -0.16614E-04   -0.18303E-06  4816   0.200E-03    0.284E-03
DAV:   9    -0.290567672681E+04   -0.72993E-05   -0.12278E-06  4832   0.150E-03
  25 F= -.29403893E+04 E0= -.29403893E+04  d E =-.393994E-02  mag=     2.0000
       N       E                     dE             d eps       ncg     rms          rms(c)
DAV:   1    -0.290567659766E+04    0.12186E-03   -0.40561E-01  5504   0.539E-01    0.149E-01
DAV:   2    -0.290567729514E+04   -0.69748E-03   -0.84526E-03  6448   0.742E-02    0.883E-02
DAV:   3    -0.290567721638E+04    0.78758E-04   -0.15905E-04  6688   0.126E-02    0.532E-02
DAV:   4    -0.290567718751E+04    0.28870E-04   -0.14645E-04  6592   0.127E-02    0.224E-02
DAV:   5    -0.290567719891E+04   -0.11405E-04   -0.30356E-05  5648   0.577E-03    0.114E-02
DAV:   6    -0.290567721059E+04   -0.11680E-04   -0.75151E-06  4944   0.312E-03    0.754E-03
DAV:   7    -0.290567722134E+04   -0.10749E-04   -0.18223E-06  4768   0.145E-03    0.422E-03
DAV:   8    -0.290567723204E+04   -0.10701E-04   -0.88419E-07  4816   0.128E-03    0.179E-03
DAV:   9    -0.290567723733E+04   -0.52913E-05   -0.45589E-07  4880   0.967E-04
  26 F= -.29403901E+04 E0= -.29403901E+04  d E =-.476083E-02  mag=     2.0000
       N       E                     dE             d eps       ncg     rms          rms(c)
DAV:   1    -0.290567848913E+04   -0.12571E-02   -0.13179E+00  5504   0.970E-01    0.252E-01
DAV:   2    -0.290568082461E+04   -0.23355E-02   -0.27155E-02  6480   0.133E-01    0.137E-01
DAV:   3    -0.290568067162E+04    0.15300E-03   -0.48918E-04  6704   0.218E-02    0.816E-02
DAV:   4    -0.290568064889E+04    0.22721E-04   -0.24810E-04  6544   0.189E-02    0.407E-02
DAV:   5    -0.290568065771E+04   -0.88130E-05   -0.99948E-05  6640   0.104E-02
  27 F= -.29403940E+04 E0= -.29403940E+04  d E =-.389963E-02  mag=     2.0000
       N       E                     dE             d eps       ncg     rms          rms(c)
DAV:   1    -0.290567963436E+04    0.10145E-02   -0.13494E+00  5504   0.982E-01    0.261E-01
DAV:   2    -0.290568204918E+04   -0.24148E-02   -0.28222E-02  6432   0.135E-01    0.138E-01
DAV:   3    -0.290568189618E+04    0.15300E-03   -0.50764E-04  6768   0.226E-02    0.822E-02
DAV:   4    -0.290568186968E+04    0.26500E-04   -0.26374E-04  6480   0.202E-02    0.404E-02
DAV:   5    -0.290568187926E+04   -0.95840E-05   -0.10525E-04  6608   0.111E-02    0.199E-02
DAV:   6    -0.290568188098E+04   -0.17192E-05   -0.20512E-05  5152   0.536E-03
  28 F= -.29403957E+04 E0= -.29403957E+04  d E =-.560878E-02  mag=     2.0000
       N       E                     dE             d eps       ncg     rms          rms(c)
DAV:   1    -0.290568322954E+04   -0.13503E-02   -0.17335E+00  5504   0.110E+00    0.280E-01
DAV:   2    -0.290568635734E+04   -0.31278E-02   -0.36098E-02  6352   0.150E-01    0.162E-01
DAV:   3    -0.290568615960E+04    0.19774E-03   -0.58950E-04  6736   0.238E-02    0.969E-02
DAV:   4    -0.290568612938E+04    0.30216E-04   -0.34366E-04  6480   0.222E-02    0.444E-02
DAV:   5    -0.290568614846E+04   -0.19073E-04   -0.13012E-04  6640   0.116E-02    0.214E-02
DAV:   6    -0.290568615280E+04   -0.43397E-05   -0.22773E-05  5344   0.549E-03
  29 F= -.29404006E+04 E0= -.29404006E+04  d E =-.486217E-02  mag=     2.0000
       N       E                     dE             d eps       ncg     rms          rms(c)
DAV:   1    -0.290568423867E+04    0.19098E-02   -0.19361E+00  5504   0.116E+00    0.298E-01
DAV:   2    -0.290568769549E+04   -0.34568E-02   -0.40000E-02  6320   0.159E-01    0.170E-01
DAV:   3    -0.290568747697E+04    0.21852E-03   -0.66252E-04  6816   0.254E-02    0.102E-01
DAV:   4    -0.290568744339E+04    0.33585E-04   -0.37348E-04  6464   0.235E-02    0.473E-02
DAV:   5    -0.290568746523E+04   -0.21839E-04   -0.15247E-04  6640   0.128E-02    0.229E-02
DAV:   6    -0.290568747124E+04   -0.60147E-05   -0.27474E-05  5536   0.608E-03
  30 F= -.29404025E+04 E0= -.29404025E+04  d E =-.680580E-02  mag=     2.0000
       N       E                     dE             d eps       ncg     rms          rms(c)
DAV:   1    -0.290568924549E+04   -0.17803E-02   -0.75918E-01  5504   0.713E-01    0.192E-01
DAV:   2    -0.290569062868E+04   -0.13832E-02   -0.15970E-02  6432   0.976E-02    0.117E-01
DAV:   3    -0.290569053102E+04    0.97660E-04   -0.26011E-04  6688   0.156E-02    0.708E-02
DAV:   4    -0.290569052796E+04    0.30629E-05   -0.23278E-04  6608   0.156E-02    0.327E-02
DAV:   5    -0.290569054572E+04   -0.17762E-04   -0.58425E-05  6496   0.763E-03    0.148E-02
DAV:   6    -0.290569055866E+04   -0.12945E-04   -0.14359E-05  5152   0.384E-03    0.909E-03
DAV:   7    -0.290569056990E+04   -0.11235E-04   -0.25885E-06  4816   0.171E-03    0.566E-03
DAV:   8    -0.290569058272E+04   -0.12824E-04   -0.14124E-06  4832   0.149E-03    0.243E-03
DAV:   9    -0.290569058938E+04   -0.66623E-05   -0.74162E-07  4880   0.120E-03
  31 F= -.29404061E+04 E0= -.29404061E+04  d E =-.354403E-02  mag=     2.0000
       N       E                     dE             d eps       ncg     rms          rms(c)
DAV:   1    -0.290569077373E+04   -0.19101E-03   -0.10568E+00  5504   0.842E-01    0.221E-01
DAV:   2    -0.290569265814E+04   -0.18844E-02   -0.21965E-02  6400   0.114E-01    0.137E-01
DAV:   3    -0.290569250804E+04    0.15009E-03   -0.34988E-04  6688   0.178E-02    0.836E-02
DAV:   4    -0.290569247445E+04    0.33595E-04   -0.29858E-04  6576   0.178E-02    0.387E-02
DAV:   5    -0.290569248998E+04   -0.15529E-04   -0.80656E-05  6512   0.863E-03    0.171E-02
DAV:   6    -0.290569250514E+04   -0.15157E-04   -0.16748E-05  5184   0.430E-03    0.106E-02
DAV:   7    -0.290569251955E+04   -0.14418E-04   -0.36846E-06  4832   0.192E-03    0.630E-03
DAV:   8    -0.290569253428E+04   -0.14722E-04   -0.17444E-06  4800   0.156E-03    0.255E-03
DAV:   9    -0.290569254096E+04   -0.66874E-05   -0.88819E-07  4896   0.117E-03
  32 F= -.29404085E+04 E0= -.29404085E+04  d E =-.599875E-02  mag=     2.0000
       N       E                     dE             d eps       ncg     rms          rms(c)
DAV:   1    -0.290568498595E+04    0.75483E-02   -0.42312E+00  5504   0.168E+00    0.440E-01
DAV:   2    -0.290569219101E+04   -0.72051E-02   -0.84639E-02  6368   0.228E-01    0.270E-01
DAV:   3    -0.290569161648E+04    0.57453E-03   -0.13986E-03  6736   0.353E-02    0.164E-01
DAV:   4    -0.290569150871E+04    0.10777E-03   -0.11427E-03  6608   0.353E-02    0.744E-02
DAV:   5    -0.290569157525E+04   -0.66538E-04   -0.30627E-04  6608   0.168E-02    0.339E-02
DAV:   6    -0.290569162240E+04   -0.47151E-04   -0.64454E-05  6640   0.835E-03    0.208E-02
DAV:   7    -0.290569166557E+04   -0.43168E-04   -0.10095E-05  5200   0.297E-03    0.122E-02
DAV:   8    -0.290569171031E+04   -0.44744E-04   -0.47914E-06  5008   0.279E-03    0.449E-03
DAV:   9    -0.290569172930E+04   -0.18988E-04   -0.28641E-06  5008   0.208E-03    0.239E-03
DAV:  10    -0.290569174155E+04   -0.12249E-04   -0.73871E-07  4848   0.116E-03    0.189E-03
DAV:  11    -0.290569175432E+04   -0.12770E-04   -0.31853E-07  4816   0.744E-04    0.122E-03
DAV:  12    -0.290569176983E+04   -0.15512E-04   -0.31967E-07  4800   0.795E-04    0.753E-04
DAV:  13    -0.290569178266E+04   -0.12827E-04   -0.33767E-07  4848   0.823E-04    0.615E-04
DAV:  14    -0.290569179096E+04   -0.83055E-05   -0.24177E-07  4816   0.655E-04
  33 F= -.29404088E+04 E0= -.29404088E+04  d E =-.625740E-02  mag=     2.0000
       N       E                     dE             d eps       ncg     rms          rms(c)
DAV:   1    -0.290569141588E+04    0.36678E-03   -0.92008E-01  5504   0.784E-01    0.205E-01
DAV:   2    -0.290569300317E+04   -0.15873E-02   -0.18549E-02  6560   0.106E-01    0.126E-01
DAV:   3    -0.290569288494E+04    0.11823E-03   -0.30548E-04  6704   0.164E-02    0.767E-02
DAV:   4    -0.290569286072E+04    0.24222E-04   -0.24593E-04  6672   0.163E-02    0.345E-02
DAV:   5    -0.290569287381E+04   -0.13094E-04   -0.64639E-05  6480   0.775E-03    0.156E-02
DAV:   6    -0.290569288243E+04   -0.86175E-05   -0.13002E-05  5216   0.392E-03
  34 F= -.29404094E+04 E0= -.29404094E+04  d E =-.687819E-02  mag=     2.0000
       N       E                     dE             d eps       ncg     rms          rms(c)
DAV:   1    -0.290569437771E+04   -0.15039E-02   -0.11059E+00  5504   0.843E-01    0.222E-01
DAV:   2    -0.290569633163E+04   -0.19539E-02   -0.22206E-02  6544   0.114E-01    0.128E-01
DAV:   3    -0.290569621982E+04    0.11181E-03   -0.35347E-04  6704   0.180E-02    0.777E-02
DAV:   4    -0.290569621973E+04    0.90455E-07   -0.20755E-04  6624   0.161E-02    0.357E-02
DAV:   5    -0.290569623284E+04   -0.13105E-04   -0.67939E-05  6784   0.818E-03    0.161E-02
DAV:   6    -0.290569623436E+04   -0.15267E-05   -0.12398E-05  5184   0.410E-03
  35 F= -.29404133E+04 E0= -.29404133E+04  d E =-.387405E-02  mag=     2.0000
       N       E                     dE             d eps       ncg     rms          rms(c)
DAV:   1    -0.290568503825E+04    0.11195E-01   -0.86168E+00  5504   0.236E+00    0.626E-01
DAV:   2    -0.290570013242E+04   -0.15094E-01   -0.17115E-01  6288   0.320E-01    0.357E-01
DAV:   3    -0.290569925217E+04    0.88025E-03   -0.27759E-03  6720   0.508E-02    0.215E-01
DAV:   4    -0.290569916976E+04    0.82418E-04   -0.15964E-03  6528   0.446E-02    0.103E-01
DAV:   5    -0.290569927287E+04   -0.10311E-03   -0.52847E-04  6672   0.230E-02    0.454E-02
DAV:   6    -0.290569928581E+04   -0.12944E-04   -0.10796E-04  6576   0.116E-02    0.266E-02
DAV:   7    -0.290569930666E+04   -0.20849E-04   -0.22884E-05  5424   0.432E-03    0.158E-02
DAV:   8    -0.290569933222E+04   -0.25553E-04   -0.59437E-06  5072   0.363E-03    0.661E-03
DAV:   9    -0.290569935360E+04   -0.21382E-04   -0.43585E-06  5008   0.294E-03    0.285E-03
DAV:  10    -0.290569936743E+04   -0.13838E-04   -0.16192E-06  4832   0.186E-03    0.226E-03
DAV:  11    -0.290569937757E+04   -0.10136E-04   -0.47467E-07  4800   0.960E-04    0.171E-03
DAV:  12    -0.290569939315E+04   -0.15577E-04   -0.40285E-07  4736   0.119E-03    0.110E-03
DAV:  13    -0.290569940850E+04   -0.15354E-04   -0.57678E-07  4784   0.147E-03    0.867E-04
DAV:  14    -0.290569941343E+04   -0.49316E-05   -0.44521E-07  4880   0.784E-04
  36 F= -.29404179E+04 E0= -.29404179E+04  d E =-.851524E-02  mag=     2.0000
       N       E                     dE             d eps       ncg     rms          rms(c)
DAV:   1    -0.290570117905E+04   -0.17706E-02   -0.16589E+00  5504   0.101E+00    0.280E-01
DAV:   2    -0.290570406347E+04   -0.28844E-02   -0.32972E-02  6368   0.137E-01    0.155E-01
DAV:   3    -0.290570388664E+04    0.17683E-03   -0.52938E-04  6688   0.220E-02    0.951E-02
DAV:   4    -0.290570388476E+04    0.18815E-05   -0.27811E-04  6624   0.185E-02    0.463E-02
DAV:   5    -0.290570390317E+04   -0.18404E-04   -0.10611E-04  6704   0.106E-02    0.198E-02
DAV:   6    -0.290570390768E+04   -0.45194E-05   -0.19721E-05  5280   0.492E-03
  37 F= -.29404231E+04 E0= -.29404231E+04  d E =-.514088E-02  mag=     2.0000
       N       E                     dE             d eps       ncg     rms          rms(c)
DAV:   1    -0.290569190711E+04    0.11996E-01   -0.88567E+00  5504   0.234E+00    0.650E-01
DAV:   2    -0.290570744458E+04   -0.15537E-01   -0.17574E-01  6272   0.317E-01    0.356E-01
DAV:   3    -0.290570649886E+04    0.94571E-03   -0.28070E-03  6704   0.510E-02    0.219E-01
DAV:   4    -0.290570638606E+04    0.11280E-03   -0.14758E-03  6576   0.428E-02    0.108E-01
DAV:   5    -0.290570649184E+04   -0.10578E-03   -0.57292E-04  6640   0.248E-02    0.455E-02
DAV:   6    -0.290570651389E+04   -0.22057E-04   -0.11833E-04  6560   0.117E-02    0.261E-02
DAV:   7    -0.290570654159E+04   -0.27694E-04   -0.24596E-05  5456   0.439E-03    0.158E-02
DAV:   8    -0.290570657536E+04   -0.33771E-04   -0.50437E-06  4976   0.350E-03    0.725E-03
DAV:   9    -0.290570660397E+04   -0.28611E-04   -0.45034E-06  5072   0.328E-03    0.292E-03
DAV:  10    -0.290570662177E+04   -0.17804E-04   -0.22489E-06  4832   0.216E-03    0.259E-03
DAV:  11    -0.290570663572E+04   -0.13953E-04   -0.53334E-07  4800   0.112E-03    0.191E-03
DAV:  12    -0.290570665535E+04   -0.19625E-04   -0.42228E-07  4736   0.128E-03    0.123E-03
DAV:  13    -0.290570667782E+04   -0.22469E-04   -0.76800E-07  4752   0.172E-03    0.902E-04
DAV:  14    -0.290570668351E+04   -0.56946E-05   -0.57113E-07  4912   0.773E-04
  38 F= -.29404273E+04 E0= -.29404273E+04  d E =-.941514E-02  mag=     2.0000
       N       E                     dE             d eps       ncg     rms          rms(c)
DAV:   1    -0.290570829635E+04   -0.16185E-02   -0.96424E-01  5504   0.769E-01    0.213E-01
DAV:   2    -0.290570992890E+04   -0.16325E-02   -0.18763E-02  6384   0.104E-01    0.135E-01
DAV:   3    -0.290570981120E+04    0.11770E-03   -0.30371E-04  6736   0.160E-02    0.816E-02
DAV:   4    -0.290570980931E+04    0.18934E-05   -0.28627E-04  6640   0.170E-02    0.361E-02
DAV:   5    -0.290570982298E+04   -0.13673E-04   -0.64884E-05  6576   0.778E-03    0.158E-02
DAV:   6    -0.290570983554E+04   -0.12561E-04   -0.16528E-05  5296   0.385E-03    0.961E-03
DAV:   7    -0.290570984599E+04   -0.10445E-04   -0.26882E-06  4784   0.164E-03    0.579E-03
DAV:   8    -0.290570985601E+04   -0.10016E-04   -0.13280E-06  4784   0.121E-03    0.279E-03
DAV:   9    -0.290570986098E+04   -0.49744E-05   -0.63854E-07  4832   0.104E-03
  39 F= -.29404311E+04 E0= -.29404311E+04  d E =-.372991E-02  mag=     2.0000
       N       E                     dE             d eps       ncg     rms          rms(c)
DAV:   1    -0.290570815497E+04    0.17010E-02   -0.28305E+00  5504   0.132E+00    0.366E-01
DAV:   2    -0.290571311273E+04   -0.49578E-02   -0.56818E-02  6368   0.178E-01    0.234E-01
DAV:   3    -0.290571274457E+04    0.36816E-03   -0.90172E-04  6688   0.274E-02    0.141E-01
DAV:   4    -0.290571271589E+04    0.28678E-04   -0.80918E-04  6608   0.289E-02    0.603E-02
DAV:   5    -0.290571276322E+04   -0.47331E-04   -0.19292E-04  6672   0.133E-02    0.269E-02
DAV:   6    -0.290571280036E+04   -0.37141E-04   -0.43156E-05  6160   0.643E-03    0.163E-02
DAV:   7    -0.290571283136E+04   -0.31000E-04   -0.67946E-06  5056   0.243E-03    0.975E-03
DAV:   8    -0.290571286103E+04   -0.29672E-04   -0.28795E-06  4864   0.207E-03    0.435E-03
DAV:   9    -0.290571287537E+04   -0.14340E-04   -0.19503E-06  4976   0.179E-03    0.179E-03
DAV:  10    -0.290571288207E+04   -0.66943E-05   -0.55868E-07  4864   0.974E-04
  40 F= -.29404350E+04 E0= -.29404350E+04  d E =-.769929E-02  mag=     2.0000
       N       E                     dE             d eps       ncg     rms          rms(c)
DAV:   1    -0.290569386839E+04    0.19007E-01   -0.11330E+01  5504   0.264E+00    0.726E-01
DAV:   2    -0.290571278868E+04   -0.18920E-01   -0.21558E-01  6352   0.354E-01    0.461E-01
DAV:   3    -0.290571142583E+04    0.13628E-02   -0.35214E-03  6768   0.542E-02    0.277E-01
DAV:   4    -0.290571119328E+04    0.23255E-03   -0.30782E-03  6608   0.570E-02    0.121E-01
DAV:   5    -0.290571137288E+04   -0.17960E-03   -0.75861E-04  6688   0.263E-02    0.534E-02
DAV:   6    -0.290571149098E+04   -0.11810E-03   -0.15815E-04  6656   0.127E-02    0.323E-02
DAV:   7    -0.290571159073E+04   -0.99754E-04   -0.26556E-05  5632   0.465E-03    0.189E-02
DAV:   8    -0.290571168046E+04   -0.89729E-04   -0.10198E-05  5072   0.412E-03    0.775E-03
DAV:   9    -0.290571172200E+04   -0.41544E-04   -0.71269E-06  5200   0.342E-03    0.339E-03
DAV:  10    -0.290571174251E+04   -0.20505E-04   -0.18749E-06  4848   0.181E-03    0.266E-03
DAV:  11    -0.290571176353E+04   -0.21019E-04   -0.53367E-07  4848   0.111E-03    0.173E-03
DAV:  12    -0.290571179474E+04   -0.31215E-04   -0.73463E-07  4768   0.161E-03    0.995E-04
DAV:  13    -0.290571181201E+04   -0.17265E-04   -0.65905E-07  4912   0.125E-03    0.855E-04
DAV:  14    -0.290571182723E+04   -0.15219E-04   -0.40757E-07  4784   0.121E-03    0.508E-04
DAV:  15    -0.290571183571E+04   -0.84813E-05   -0.35629E-07  4896   0.817E-04
  41 F= -.29404359E+04 E0= -.29404359E+04  d E =-.855508E-02  mag=     2.0000
       N       E                     dE             d eps       ncg     rms          rms(c)
DAV:   1    -0.290570999813E+04    0.18291E-02   -0.21781E+00  5504   0.116E+00    0.318E-01
DAV:   2    -0.290571363950E+04   -0.36414E-02   -0.41791E-02  6400   0.156E-01    0.201E-01
DAV:   3    -0.290571338889E+04    0.25061E-03   -0.67501E-04  6704   0.237E-02    0.121E-01
DAV:   4    -0.290571338438E+04    0.45115E-05   -0.59389E-04  6688   0.252E-02    0.504E-02
DAV:   5    -0.290571341894E+04   -0.34567E-04   -0.13835E-04  6704   0.113E-02    0.231E-02
DAV:   6    -0.290571343611E+04   -0.17161E-04   -0.28936E-05  5808   0.551E-03    0.140E-02
DAV:   7    -0.290571345193E+04   -0.15824E-04   -0.48776E-06  4864   0.212E-03    0.807E-03
DAV:   8    -0.290571346597E+04   -0.14045E-04   -0.22914E-06  4864   0.182E-03    0.338E-03
DAV:   9    -0.290571347287E+04   -0.68907E-05   -0.13459E-06  4896   0.144E-03
  42 F= -.29404367E+04 E0= -.29404367E+04  d E =-.935755E-02  mag=     2.0000
       N       E                     dE             d eps       ncg     rms          rms(c)
DAV:   1    -0.290571550352E+04   -0.20375E-02   -0.25700E+00  5504   0.124E+00    0.345E-01
DAV:   2    -0.290571989509E+04   -0.43916E-02   -0.50036E-02  6384   0.167E-01    0.199E-01
DAV:   3    -0.290571964012E+04    0.25497E-03   -0.82823E-04  6672   0.272E-02    0.119E-01
DAV:   4    -0.290571965325E+04   -0.13128E-04   -0.45311E-04  6688   0.233E-02    0.580E-02
DAV:   5    -0.290571968467E+04   -0.31421E-04   -0.16260E-04  6752   0.129E-02    0.247E-02
DAV:   6    -0.290571968993E+04   -0.52649E-05   -0.30475E-05  5920   0.620E-03
  43 F= -.29404439E+04 E0= -.29404439E+04  d E =-.722654E-02  mag=     2.0000
       N       E                     dE             d eps       ncg     rms          rms(c)
DAV:   1    -0.290571670931E+04    0.29754E-02   -0.46476E+00  5504   0.166E+00    0.467E-01
DAV:   2    -0.290572468597E+04   -0.79767E-02   -0.90527E-02  6288   0.226E-01    0.266E-01
DAV:   3    -0.290572421927E+04    0.46670E-03   -0.15041E-03  6736   0.371E-02    0.160E-01
DAV:   4    -0.290572420405E+04    0.15224E-04   -0.81971E-04  6496   0.315E-02    0.782E-02
DAV:   5    -0.290572426332E+04   -0.59276E-04   -0.29293E-04  6672   0.179E-02    0.335E-02
DAV:   6    -0.290572427982E+04   -0.16494E-04   -0.60493E-05  6544   0.864E-03    0.200E-02
DAV:   7    -0.290572430040E+04   -0.20578E-04   -0.13879E-05  5232   0.320E-03    0.121E-02
DAV:   8    -0.290572432479E+04   -0.24396E-04   -0.33646E-06  4944   0.309E-03    0.519E-03
DAV:   9    -0.290572434329E+04   -0.18494E-04   -0.27208E-06  4976   0.262E-03    0.225E-03
DAV:  10    -0.290572435548E+04   -0.12191E-04   -0.13622E-06  4800   0.173E-03    0.190E-03
DAV:  11    -0.290572436483E+04   -0.93574E-05   -0.33322E-07  4832   0.914E-04
  44 F= -.29404500E+04 E0= -.29404500E+04  d E =-.132614E-01  mag=     2.0000
       N       E                     dE             d eps       ncg     rms          rms(c)
DAV:   1    -0.290569082639E+04    0.33529E-01   -0.18587E+01  5504   0.332E+00    0.927E-01
DAV:   2    -0.290572295807E+04   -0.32132E-01   -0.35970E-01  6256   0.451E-01    0.534E-01
DAV:   3    -0.290572111860E+04    0.18395E-02   -0.60891E-03  6720   0.739E-02    0.321E-01
DAV:   4    -0.290572072175E+04    0.39685E-03   -0.32476E-03  6592   0.620E-02    0.162E-01
DAV:   5    -0.290572090105E+04   -0.17930E-03   -0.12348E-03  6656   0.355E-02    0.666E-02
DAV:   6    -0.290572094977E+04   -0.48723E-04   -0.24419E-04  6528   0.172E-02    0.399E-02
DAV:   7    -0.290572100559E+04   -0.55815E-04   -0.68189E-05  6176   0.667E-03    0.240E-02
DAV:   8    -0.290572106051E+04   -0.54921E-04   -0.11038E-05  5232   0.564E-03    0.108E-02
DAV:   9    -0.290572110652E+04   -0.46007E-04   -0.10441E-05  5120   0.488E-03    0.432E-03
DAV:  10    -0.290572113425E+04   -0.27735E-04   -0.45510E-06  4848   0.297E-03    0.359E-03
DAV:  11    -0.290572115476E+04   -0.20505E-04   -0.99906E-07  4800   0.142E-03    0.270E-03
DAV:  12    -0.290572118604E+04   -0.31284E-04   -0.84315E-07  4736   0.181E-03    0.167E-03
DAV:  13    -0.290572121896E+04   -0.32917E-04   -0.13379E-06  4800   0.224E-03    0.135E-03
DAV:  14    -0.290572122737E+04   -0.84088E-05   -0.99743E-07  4944   0.102E-03
  45 F= -.29404495E+04 E0= -.29404495E+04  d E =-.128528E-01  mag=     2.0000
       N       E                     dE             d eps       ncg     rms          rms(c)
DAV:   1    -0.290571615177E+04    0.50672E-02   -0.52057E+00  5504   0.176E+00    0.493E-01
DAV:   2    -0.290572533880E+04   -0.91870E-02   -0.10386E-01  6368   0.240E-01    0.285E-01
DAV:   3    -0.290572483976E+04    0.49903E-03   -0.17016E-03  6752   0.386E-02    0.170E-01
DAV:   4    -0.290572479073E+04    0.49037E-04   -0.91411E-04  6624   0.333E-02    0.803E-02
DAV:   5    -0.290572484214E+04   -0.51408E-04   -0.31781E-04  6672   0.184E-02    0.347E-02
DAV:   6    -0.290572485903E+04   -0.16892E-04   -0.64989E-05  6672   0.891E-03    0.209E-02
DAV:   7    -0.290572488143E+04   -0.22402E-04   -0.14806E-05  5264   0.315E-03    0.127E-02
DAV:   8    -0.290572490107E+04   -0.19640E-04   -0.35048E-06  5008   0.292E-03    0.562E-03
DAV:   9    -0.290572491364E+04   -0.12570E-04   -0.25578E-06  4992   0.243E-03    0.220E-03
DAV:  10    -0.290572492106E+04   -0.74156E-05   -0.12155E-06  4864   0.157E-03
  46 F= -.29404518E+04 E0= -.29404518E+04  d E =-.151002E-01  mag=     2.0000
       N       E                     dE             d eps       ncg     rms          rms(c)
DAV:   1    -0.290572410429E+04    0.80935E-03   -0.47152E+00  5504   0.164E+00    0.459E-01
DAV:   2    -0.290573200769E+04   -0.79034E-02   -0.89065E-02  6368   0.220E-01    0.270E-01
DAV:   3    -0.290573159847E+04    0.40922E-03   -0.15034E-03  6688   0.350E-02    0.161E-01
DAV:   4    -0.290573160982E+04   -0.11348E-04   -0.82480E-04  6656   0.306E-02    0.791E-02
DAV:   5    -0.290573166067E+04   -0.50845E-04   -0.29684E-04  6704   0.160E-02    0.335E-02
DAV:   6    -0.290573167571E+04   -0.15048E-04   -0.54216E-05  6352   0.802E-03    0.192E-02
DAV:   7    -0.290573169517E+04   -0.19459E-04   -0.18062E-05  5312   0.325E-03    0.115E-02
DAV:   8    -0.290573170891E+04   -0.13741E-04   -0.30120E-06  5008   0.226E-03    0.534E-03
DAV:   9    -0.290573171953E+04   -0.10612E-04   -0.24961E-06  4976   0.188E-03    0.217E-03
DAV:  10    -0.290573172494E+04   -0.54190E-05   -0.74806E-07  4816   0.114E-03
  47 F= -.29404600E+04 E0= -.29404600E+04  d E =-.816212E-02  mag=     2.0000
       N       E                     dE             d eps       ncg     rms          rms(c)
DAV:   1    -0.290569832942E+04    0.33390E-01   -0.22583E+01  5504   0.359E+00    0.101E+00
DAV:   2    -0.290573817586E+04   -0.39846E-01   -0.44165E-01  6240   0.486E-01    0.595E-01
DAV:   3    -0.290573616858E+04    0.20073E-02   -0.73134E-03  6736   0.768E-02    0.357E-01
DAV:   4    -0.290573571656E+04    0.45202E-03   -0.38470E-03  6576   0.657E-02    0.180E-01
DAV:   5    -0.290573594184E+04   -0.22528E-03   -0.14716E-03  6672   0.354E-02    0.743E-02
DAV:   6    -0.290573600650E+04   -0.64653E-04   -0.25333E-04  6480   0.177E-02    0.426E-02
DAV:   7    -0.290573608981E+04   -0.83314E-04   -0.10035E-04  6368   0.752E-03    0.252E-02
DAV:   8    -0.290573615181E+04   -0.61998E-04   -0.13105E-05  5200   0.472E-03    0.120E-02
DAV:   9    -0.290573620916E+04   -0.57351E-04   -0.11335E-05  5168   0.403E-03    0.481E-03
DAV:  10    -0.290573624219E+04   -0.33028E-04   -0.35783E-06  4832   0.245E-03    0.328E-03
DAV:  11    -0.290573626709E+04   -0.24900E-04   -0.10289E-06  4816   0.119E-03    0.245E-03
DAV:  12    -0.290573630163E+04   -0.34547E-04   -0.91459E-07  4752   0.142E-03    0.161E-03
DAV:  13    -0.290573633607E+04   -0.34433E-04   -0.11891E-06  4784   0.172E-03    0.117E-03
DAV:  14    -0.290573635026E+04   -0.14192E-04   -0.79516E-07  4864   0.108E-03    0.748E-04
DAV:  15    -0.290573636354E+04   -0.13286E-04   -0.27366E-07  4784   0.791E-04    0.536E-04
DAV:  16    -0.290573637242E+04   -0.88748E-05   -0.27244E-07  4848   0.509E-04
  48 F= -.29404676E+04 E0= -.29404676E+04  d E =-.157898E-01  mag=     2.0000
       N       E                     dE             d eps       ncg     rms          rms(c)
DAV:   1    -0.290573537406E+04    0.98948E-03   -0.53646E+00  5504   0.175E+00    0.503E-01
DAV:   2    -0.290574437113E+04   -0.89971E-02   -0.10156E-01  6336   0.236E-01    0.320E-01
DAV:   3    -0.290574379242E+04    0.57870E-03   -0.16991E-03  6736   0.372E-02    0.192E-01
DAV:   4    -0.290574371918E+04    0.73245E-04   -0.13339E-03  6672   0.371E-02    0.841E-02
DAV:   5    -0.290574379298E+04   -0.73805E-04   -0.34435E-04  6688   0.174E-02    0.368E-02
DAV:   6    -0.290574384895E+04   -0.55969E-04   -0.75683E-05  6432   0.859E-03    0.224E-02
DAV:   7    -0.290574389660E+04   -0.47647E-04   -0.15262E-05  5344   0.327E-03    0.129E-02
DAV:   8    -0.290574393597E+04   -0.39374E-04   -0.44761E-06  5024   0.246E-03    0.598E-03
DAV:   9    -0.290574395777E+04   -0.21796E-04   -0.35731E-06  5152   0.222E-03    0.241E-03
DAV:  10    -0.290574396658E+04   -0.88079E-05   -0.85424E-07  4864   0.119E-03
  49 F= -.29404766E+04 E0= -.29404766E+04  d E =-.897639E-02  mag=     2.0000
       N       E                     dE             d eps       ncg     rms          rms(c)
DAV:   1    -0.290572848724E+04    0.15471E-01   -0.11118E+01  5504   0.252E+00    0.727E-01
DAV:   2    -0.290574809463E+04   -0.19607E-01   -0.21983E-01  6272   0.342E-01    0.465E-01
DAV:   3    -0.290574684802E+04    0.12466E-02   -0.36604E-03  6784   0.540E-02    0.278E-01
DAV:   4    -0.290574659084E+04    0.25717E-03   -0.27313E-03  6624   0.532E-02    0.120E-01
DAV:   5    -0.290574674800E+04   -0.15716E-03   -0.73825E-04  6704   0.251E-02    0.536E-02
DAV:   6    -0.290574686487E+04   -0.11686E-03   -0.14652E-04  6592   0.122E-02    0.324E-02
DAV:   7    -0.290574696792E+04   -0.10305E-03   -0.34380E-05  5664   0.470E-03    0.189E-02
DAV:   8    -0.290574705036E+04   -0.82445E-04   -0.88491E-06  5200   0.372E-03    0.836E-03
DAV:   9    -0.290574709718E+04   -0.46814E-04   -0.69739E-06  5232   0.325E-03    0.347E-03
DAV:  10    -0.290574711704E+04   -0.19860E-04   -0.18510E-06  4896   0.176E-03    0.244E-03
DAV:  11    -0.290574713682E+04   -0.19783E-04   -0.54546E-07  4832   0.101E-03    0.157E-03
DAV:  12    -0.290574716515E+04   -0.28332E-04   -0.57332E-07  4784   0.136E-03    0.951E-04
DAV:  13    -0.290574718269E+04   -0.17539E-04   -0.54635E-07  4880   0.111E-03    0.722E-04
DAV:  14    -0.290574719765E+04   -0.14959E-04   -0.33424E-07  4848   0.105E-03    0.451E-04
DAV:  15    -0.290574720656E+04   -0.89072E-05   -0.28631E-07  4880   0.758E-04
  50 F= -.29404818E+04 E0= -.29404818E+04  d E =-.142102E-01  mag=     2.0000
       N       E                     dE             d eps       ncg     rms          rms(c)
DAV:   1    -0.290574321487E+04    0.39828E-02   -0.78749E+00  5504   0.208E+00    0.616E-01
DAV:   2    -0.290575669787E+04   -0.13483E-01   -0.15289E-01  6368   0.283E-01    0.345E-01
DAV:   3    -0.290575600037E+04    0.69750E-03   -0.27737E-03  6688   0.454E-02    0.211E-01
DAV:   4    -0.290575590815E+04    0.92215E-04   -0.12074E-03  6560   0.363E-02    0.106E-01
DAV:   5    -0.290575597784E+04   -0.69685E-04   -0.55129E-04  6640   0.219E-02    0.457E-02
DAV:   6    -0.290575599300E+04   -0.15162E-04   -0.96941E-05  6576   0.107E-02    0.245E-02
DAV:   7    -0.290575602072E+04   -0.27724E-04   -0.39587E-05  5584   0.467E-03    0.151E-02
DAV:   8    -0.290575604597E+04   -0.25243E-04   -0.52352E-06  5104   0.304E-03    0.716E-03
DAV:   9    -0.290575607039E+04   -0.24421E-04   -0.40499E-06  5008   0.264E-03    0.294E-03
DAV:  10    -0.290575608652E+04   -0.16134E-04   -0.16563E-06  4816   0.175E-03    0.220E-03
DAV:  11    -0.290575609783E+04   -0.11307E-04   -0.44764E-07  4848   0.848E-04    0.165E-03
DAV:  12    -0.290575611307E+04   -0.15237E-04   -0.31242E-07  4736   0.902E-04    0.110E-03
DAV:  13    -0.290575613249E+04   -0.19423E-04   -0.64134E-07  4784   0.139E-03    0.820E-04
DAV:  14    -0.290575613727E+04   -0.47790E-05   -0.38996E-07  4928   0.651E-04
  51 F= -.29404925E+04 E0= -.29404925E+04  d E =-.106640E-01  mag=     2.0000
       N       E                     dE             d eps       ncg     rms          rms(c)
DAV:   1    -0.290574232956E+04    0.13803E-01   -0.10165E+01  5504   0.238E+00    0.699E-01
DAV:   2    -0.290575979574E+04   -0.17466E-01   -0.19755E-01  6304   0.320E-01    0.391E-01
DAV:   3    -0.290575888704E+04    0.90870E-03   -0.35656E-03  6688   0.515E-02    0.239E-01
DAV:   4    -0.290575876682E+04    0.12022E-03   -0.15398E-03  6592   0.409E-02    0.121E-01
DAV:   5    -0.290575886530E+04   -0.98481E-04   -0.71343E-04  6608   0.247E-02    0.513E-02
DAV:   6    -0.290575888126E+04   -0.15963E-04   -0.12219E-04  6544   0.121E-02    0.279E-02
DAV:   7    -0.290575891338E+04   -0.32124E-04   -0.52939E-05  5744   0.534E-03    0.171E-02
DAV:   8    -0.290575894427E+04   -0.30888E-04   -0.65183E-06  5168   0.340E-03    0.828E-03
DAV:   9    -0.290575897558E+04   -0.31311E-04   -0.51594E-06  5008   0.299E-03    0.337E-03
DAV:  10    -0.290575899684E+04   -0.21261E-04   -0.21530E-06  4816   0.200E-03    0.251E-03
DAV:  11    -0.290575901167E+04   -0.14830E-04   -0.59242E-07  4816   0.971E-04    0.190E-03
DAV:  12    -0.290575903190E+04   -0.20229E-04   -0.44470E-07  4752   0.105E-03    0.128E-03
DAV:  13    -0.290575905786E+04   -0.25959E-04   -0.90788E-07  4768   0.162E-03    0.973E-04
DAV:  14    -0.290575906404E+04   -0.61775E-05   -0.53773E-07  4944   0.746E-04
  52 F= -.29404974E+04 E0= -.29404974E+04  d E =-.155627E-01  mag=     2.0000
       N       E                     dE             d eps       ncg     rms          rms(c)
DAV:   1    -0.290575588815E+04    0.31697E-02   -0.71065E+00  5504   0.198E+00    0.577E-01
DAV:   2    -0.290576778156E+04   -0.11893E-01   -0.13362E-01  6336   0.266E-01    0.353E-01
DAV:   3    -0.290576713918E+04    0.64239E-03   -0.22021E-03  6720   0.422E-02    0.210E-01
DAV:   4    -0.290576712588E+04    0.13294E-04   -0.13679E-03  6640   0.382E-02    0.972E-02
DAV:   5    -0.290576719522E+04   -0.69338E-04   -0.40990E-04  6736   0.195E-02    0.399E-02
DAV:   6    -0.290576722265E+04   -0.27432E-04   -0.86736E-05  6544   0.988E-03    0.239E-02
DAV:   7    -0.290576725028E+04   -0.27625E-04   -0.21094E-05  5360   0.368E-03    0.142E-02
DAV:   8    -0.290576727570E+04   -0.25425E-04   -0.42003E-06  5008   0.274E-03    0.665E-03
DAV:   9    -0.290576729553E+04   -0.19825E-04   -0.39735E-06  5040   0.243E-03    0.260E-03
DAV:  10    -0.290576730440E+04   -0.88753E-05   -0.11083E-06  4880   0.132E-03
  53 F= -.29405076E+04 E0= -.29405076E+04  d E =-.102434E-01  mag=     2.0000
       N       E                     dE             d eps       ncg     rms          rms(c)
DAV:   1    -0.290572174126E+04    0.45554E-01   -0.29505E+01  5504   0.405E+00    0.118E+00
DAV:   2    -0.290577314275E+04   -0.51401E-01   -0.57015E-01  6208   0.544E-01    0.726E-01
DAV:   3    -0.290577043446E+04    0.27083E-02   -0.94227E-03  6800   0.865E-02    0.434E-01
DAV:   4    -0.290576990303E+04    0.53143E-03   -0.54964E-03  6608   0.761E-02    0.208E-01
DAV:   5    -0.290577019838E+04   -0.29534E-03   -0.17686E-03  6704   0.403E-02    0.833E-02
DAV:   6    -0.290577031013E+04   -0.11175E-03   -0.36607E-04  6496   0.205E-02    0.491E-02
DAV:   7    -0.290577041199E+04   -0.10186E-03   -0.10529E-04  6464   0.800E-03    0.290E-02
DAV:   8    -0.290577050035E+04   -0.88360E-04   -0.17330E-05  5344   0.576E-03    0.132E-02
DAV:   9    -0.290577057064E+04   -0.70292E-04   -0.15311E-05  5216   0.486E-03    0.540E-03
DAV:  10    -0.290577060495E+04   -0.34309E-04   -0.43620E-06  4896   0.266E-03    0.393E-03
DAV:  11    -0.290577063159E+04   -0.26638E-04   -0.11319E-06  4848   0.124E-03    0.288E-03
DAV:  12    -0.290577067492E+04   -0.43326E-04   -0.12706E-06  4752   0.175E-03    0.172E-03
DAV:  13    -0.290577070804E+04   -0.33121E-04   -0.13336E-06  4832   0.172E-03    0.129E-03
DAV:  14    -0.290577072455E+04   -0.16509E-04   -0.86961E-07  4848   0.116E-03    0.823E-04
DAV:  15    -0.290577074013E+04   -0.15586E-04   -0.31133E-07  4816   0.870E-04    0.563E-04
DAV:  16    -0.290577074937E+04   -0.92366E-05   -0.29808E-07  4864   0.509E-04
  54 F= -.29405151E+04 E0= -.29405151E+04  d E =-.177805E-01  mag=     2.0000
       N       E                     dE             d eps       ncg     rms          rms(c)
DAV:   1    -0.290576899085E+04    0.17493E-02   -0.46456E+00  5504   0.157E+00    0.460E-01
DAV:   2    -0.290577665860E+04   -0.76677E-02   -0.86253E-02  6352   0.210E-01    0.278E-01
DAV:   3    -0.290577621104E+04    0.44756E-03   -0.13394E-03  6736   0.324E-02    0.166E-01
DAV:   4    -0.290577622223E+04   -0.11196E-04   -0.93667E-04  6688   0.297E-02    0.800E-02
DAV:   5    -0.290577626248E+04   -0.40243E-04   -0.26804E-04  6752   0.151E-02    0.317E-02
DAV:   6    -0.290577629079E+04   -0.28313E-04   -0.57238E-05  6160   0.717E-03    0.181E-02
DAV:   7    -0.290577631854E+04   -0.27753E-04   -0.12492E-05  5216   0.301E-03    0.110E-02
DAV:   8    -0.290577634203E+04   -0.23490E-04   -0.34400E-06  4960   0.190E-03    0.530E-03
DAV:   9    -0.290577635813E+04   -0.16098E-04   -0.26582E-06  5072   0.173E-03    0.205E-03
DAV:  10    -0.290577636539E+04   -0.72595E-05   -0.55586E-07  4880   0.897E-04
  55 F= -.29405224E+04 E0= -.29405224E+04  d E =-.723248E-02  mag=     2.0000
       N       E                     dE             d eps       ncg     rms          rms(c)
DAV:   1    -0.290574753569E+04    0.28822E-01   -0.19257E+01  5504   0.320E+00    0.941E-01
DAV:   2    -0.290578092117E+04   -0.33385E-01   -0.36971E-01  6256   0.430E-01    0.573E-01
DAV:   3    -0.290577901537E+04    0.19058E-02   -0.56334E-03  6784   0.667E-02    0.342E-01
DAV:   4    -0.290577875205E+04    0.26333E-03   -0.39241E-03  6640   0.605E-02    0.169E-01
DAV:   5    -0.290577894327E+04   -0.19122E-03   -0.11764E-03  6720   0.315E-02    0.650E-02
DAV:   6    -0.290577905018E+04   -0.10691E-03   -0.25156E-04  6592   0.148E-02    0.379E-02
DAV:   7    -0.290577914391E+04   -0.93736E-04   -0.55900E-05  6064   0.624E-03    0.229E-02
DAV:   8    -0.290577922311E+04   -0.79194E-04   -0.13006E-05  5104   0.376E-03    0.113E-02
DAV:   9    -0.290577928126E+04   -0.58150E-04   -0.11546E-05  5296   0.365E-03    0.416E-03
DAV:  10    -0.290577930803E+04   -0.26775E-04   -0.24114E-06  4976   0.185E-03    0.316E-03
DAV:  11    -0.290577933468E+04   -0.26648E-04   -0.72059E-07  4800   0.989E-04    0.191E-03
DAV:  12    -0.290577937007E+04   -0.35389E-04   -0.67761E-07  4784   0.117E-03    0.123E-03
DAV:  13    -0.290577939643E+04   -0.26359E-04   -0.63083E-07  4848   0.109E-03    0.867E-04
DAV:  14    -0.290577941755E+04   -0.21123E-04   -0.47265E-07  4832   0.979E-04    0.583E-04
DAV:  15    -0.290577943021E+04   -0.12658E-04   -0.31871E-07  4880   0.650E-04    0.565E-04
DAV:  16    -0.290577943517E+04   -0.49675E-05   -0.76964E-08  4880   0.274E-04
  56 F= -.29405287E+04 E0= -.29405287E+04  d E =-.135974E-01  mag=     2.0000
       N       E                     dE             d eps       ncg     rms          rms(c)
DAV:   1    -0.290578384338E+04   -0.44132E-02   -0.24515E+00  5504   0.118E+00    0.347E-01
DAV:   2    -0.290578799003E+04   -0.41467E-02   -0.47938E-02  6368   0.162E-01    0.219E-01
DAV:   3    -0.290578771553E+04    0.27450E-03   -0.83211E-04  6720   0.276E-02    0.131E-01
DAV:   4    -0.290578771982E+04   -0.42816E-05   -0.56212E-04  6560   0.259E-02    0.528E-02
DAV:   5    -0.290578774667E+04   -0.26854E-04   -0.16627E-04  6640   0.129E-02    0.250E-02
DAV:   6    -0.290578775176E+04   -0.50864E-05   -0.32524E-05  5952   0.654E-03
  57 F= -.29405380E+04 E0= -.29405380E+04  d E =-.929977E-02  mag=     2.0000
       N       E                     dE             d eps       ncg     rms          rms(c)
DAV:   1    -0.290578649564E+04    0.12510E-02   -0.35072E+00  5504   0.141E+00    0.421E-01
DAV:   2    -0.290579255966E+04   -0.60640E-02   -0.69880E-02  6384   0.194E-01    0.263E-01
DAV:   3    -0.290579216589E+04    0.39377E-03   -0.11813E-03  6768   0.330E-02    0.157E-01
DAV:   4    -0.290579216156E+04    0.43231E-05   -0.78501E-04  6496   0.311E-02    0.623E-02
DAV:   5    -0.290579220845E+04   -0.46884E-04   -0.22437E-04  6656   0.157E-02    0.294E-02
DAV:   6    -0.290579222132E+04   -0.12875E-04   -0.49813E-05  6544   0.789E-03    0.191E-02
DAV:   7    -0.290579223530E+04   -0.13980E-04   -0.88270E-06  5184   0.246E-03    0.116E-02
DAV:   8    -0.290579225685E+04   -0.21546E-04   -0.42957E-06  5040   0.286E-03    0.524E-03
DAV:   9    -0.290579227138E+04   -0.14530E-04   -0.20928E-06  4944   0.205E-03    0.220E-03
DAV:  10    -0.290579228288E+04   -0.11497E-04   -0.10369E-06  4768   0.142E-03    0.172E-03
DAV:  11    -0.290579229302E+04   -0.10143E-04   -0.29419E-07  4800   0.908E-04    0.128E-03
DAV:  12    -0.290579230827E+04   -0.15253E-04   -0.51103E-07  4736   0.119E-03    0.795E-04
DAV:  13    -0.290579231865E+04   -0.10377E-04   -0.49961E-07  4816   0.103E-03    0.541E-04
DAV:  14    -0.290579232284E+04   -0.41896E-05   -0.23673E-07  4880   0.571E-04
  58 F= -.29405438E+04 E0= -.29405438E+04  d E =-.150483E-01  mag=     2.0000
       N       E                     dE             d eps       ncg     rms          rms(c)
DAV:   1    -0.290576109269E+04    0.31226E-01   -0.14015E+01  5504   0.281E+00    0.836E-01
DAV:   2    -0.290578550338E+04   -0.24411E-01   -0.27851E-01  6368   0.387E-01    0.528E-01
DAV:   3    -0.290578400463E+04    0.14987E-02   -0.48461E-03  6832   0.657E-02    0.317E-01
DAV:   4    -0.290578371198E+04    0.29265E-03   -0.30616E-03  6544   0.609E-02    0.131E-01
DAV:   5    -0.290578388043E+04   -0.16845E-03   -0.93398E-04  6672   0.309E-02    0.600E-02
DAV:   6    -0.290578391419E+04   -0.33756E-04   -0.19780E-04  6576   0.157E-02    0.384E-02
DAV:   7    -0.290578394676E+04   -0.32570E-04   -0.43507E-05  5808   0.510E-03    0.229E-02
DAV:   8    -0.290578398576E+04   -0.38999E-04   -0.15287E-05  5216   0.516E-03    0.105E-02
DAV:   9    -0.290578401465E+04   -0.28896E-04   -0.71739E-06  5136   0.362E-03    0.424E-03
DAV:  10    -0.290578403775E+04   -0.23100E-04   -0.30808E-06  4784   0.241E-03    0.298E-03
DAV:  11    -0.290578405553E+04   -0.17781E-04   -0.87877E-07  4832   0.136E-03    0.225E-03
DAV:  12    -0.290578408382E+04   -0.28289E-04   -0.11498E-06  4736   0.178E-03    0.142E-03
DAV:  13    -0.290578410560E+04   -0.21777E-04   -0.12842E-06  4816   0.170E-03    0.107E-03
DAV:  14    -0.290578411310E+04   -0.74988E-05   -0.68050E-07  4864   0.915E-04
  59 F= -.29405379E+04 E0= -.29405379E+04  d E =-.919734E-02  mag=     2.0000
       N       E                     dE             d eps       ncg     rms          rms(c)
DAV:   1    -0.290577922178E+04    0.48838E-02   -0.80045E+00  5504   0.212E+00    0.632E-01
DAV:   2    -0.290579330211E+04   -0.14080E-01   -0.16103E-01  6384   0.294E-01    0.402E-01
DAV:   3    -0.290579237978E+04    0.92233E-03   -0.27580E-03  6720   0.505E-02    0.239E-01
DAV:   4    -0.290579227583E+04    0.10395E-03   -0.19628E-03  6512   0.477E-02    0.864E-02
DAV:   5    -0.290579234876E+04   -0.72925E-04   -0.50982E-04  6672   0.232E-02    0.441E-02
DAV:   6    -0.290579236843E+04   -0.19670E-04   -0.10621E-04  6704   0.112E-02    0.278E-02
DAV:   7    -0.290579238674E+04   -0.18317E-04   -0.16567E-05  5344   0.332E-03    0.172E-02
DAV:   8    -0.290579240599E+04   -0.19252E-04   -0.98393E-06  5168   0.405E-03    0.725E-03
DAV:   9    -0.290579241753E+04   -0.11539E-04   -0.38075E-06  4960   0.263E-03    0.292E-03
DAV:  10    -0.290579242649E+04   -0.89582E-05   -0.16426E-06  4784   0.163E-03
  60 F= -.29405445E+04 E0= -.29405445E+04  d E =-.157270E-01  mag=     2.0000
       N       E                     dE             d eps       ncg     rms          rms(c)
DAV:   1    -0.290579447689E+04   -0.20594E-02   -0.29173E+00  5504   0.129E+00    0.373E-01
DAV:   2    -0.290579949865E+04   -0.50218E-02   -0.57196E-02  6464   0.175E-01    0.229E-01
DAV:   3    -0.290579917098E+04    0.32767E-03   -0.87240E-04  6768   0.290E-02    0.134E-01
DAV:   4    -0.290579918965E+04   -0.18676E-04   -0.70277E-04  6656   0.274E-02    0.620E-02
DAV:   5    -0.290579922387E+04   -0.34215E-04   -0.16923E-04  6848   0.131E-02    0.267E-02
DAV:   6    -0.290579923727E+04   -0.13406E-04   -0.42075E-05  6352   0.700E-03    0.165E-02
DAV:   7    -0.290579924944E+04   -0.12166E-04   -0.68904E-06  5024   0.247E-03    0.951E-03
DAV:   8    -0.290579926056E+04   -0.11122E-04   -0.21835E-06  4848   0.212E-03    0.416E-03
DAV:   9    -0.290579926720E+04   -0.66416E-05   -0.20167E-06  4976   0.181E-03
  61 F= -.29405523E+04 E0= -.29405523E+04  d E =-.782329E-02  mag=     2.0000
       N       E                     dE             d eps       ncg     rms          rms(c)
DAV:   1    -0.290578848191E+04    0.10779E-01   -0.85556E+00  5504   0.222E+00    0.640E-01
DAV:   2    -0.290580328495E+04   -0.14803E-01   -0.16790E-01  6400   0.300E-01    0.393E-01
DAV:   3    -0.290580228618E+04    0.99876E-03   -0.25186E-03  6720   0.498E-02    0.231E-01
DAV:   4    -0.290580221729E+04    0.68890E-04   -0.21629E-03  6576   0.475E-02    0.109E-01
DAV:   5    -0.290580230971E+04   -0.92419E-04   -0.51523E-04  6736   0.228E-02    0.461E-02
DAV:   6    -0.290580234865E+04   -0.38942E-04   -0.13431E-04  6608   0.122E-02    0.287E-02
DAV:   7    -0.290580238360E+04   -0.34940E-04   -0.20963E-05  5600   0.434E-03    0.167E-02
DAV:   8    -0.290580241894E+04   -0.35349E-04   -0.66002E-06  5024   0.363E-03    0.753E-03
DAV:   9    -0.290580244232E+04   -0.23378E-04   -0.63191E-06  5152   0.329E-03    0.300E-03
DAV:  10    -0.290580245352E+04   -0.11195E-04   -0.18708E-06  4848   0.174E-03    0.253E-03
DAV:  11    -0.290580246380E+04   -0.10287E-04   -0.37153E-07  4832   0.899E-04    0.175E-03
DAV:  12    -0.290580248486E+04   -0.21053E-04   -0.65566E-07  4736   0.168E-03    0.969E-04
DAV:  13    -0.290580249415E+04   -0.92889E-05   -0.60459E-07  4864   0.101E-03
  62 F= -.29405572E+04 E0= -.29405572E+04  d E =-.127354E-01  mag=     2.0000
       N       E                     dE             d eps       ncg     rms          rms(c)
DAV:   1    -0.290580335720E+04   -0.87234E-03   -0.34417E+00  5504   0.143E+00    0.396E-01
DAV:   2    -0.290580911155E+04   -0.57544E-02   -0.65992E-02  6352   0.192E-01    0.259E-01
DAV:   3    -0.290580874895E+04    0.36260E-03   -0.10727E-03  6800   0.309E-02    0.159E-01
DAV:   4    -0.290580873519E+04    0.13756E-04   -0.74709E-04  6544   0.298E-02    0.574E-02
DAV:   5    -0.290580878615E+04   -0.50961E-04   -0.21484E-04  6656   0.144E-02    0.281E-02
DAV:   6    -0.290580879740E+04   -0.11250E-04   -0.40776E-05  6480   0.728E-03    0.174E-02
DAV:   7    -0.290580880803E+04   -0.10622E-04   -0.79698E-06  5072   0.241E-03    0.103E-02
DAV:   8    -0.290580881935E+04   -0.11328E-04   -0.32644E-06  4976   0.272E-03    0.434E-03
DAV:   9    -0.290580882613E+04   -0.67772E-05   -0.19185E-06  4944   0.182E-03
  63 F= -.29405647E+04 E0= -.29405647E+04  d E =-.748357E-02  mag=     2.0000
       N       E                     dE             d eps       ncg     rms          rms(c)
DAV:   1    -0.290580549581E+04    0.33235E-02   -0.28887E+00  5504   0.132E+00    0.364E-01
DAV:   2    -0.290581045392E+04   -0.49581E-02   -0.56900E-02  6288   0.176E-01    0.238E-01
DAV:   3    -0.290581014697E+04    0.30695E-03   -0.89939E-04  6784   0.284E-02    0.147E-01
DAV:   4    -0.290581013552E+04    0.11457E-04   -0.64836E-04  6528   0.277E-02    0.505E-02
DAV:   5    -0.290581017977E+04   -0.44253E-04   -0.18266E-04  6624   0.134E-02    0.257E-02
DAV:   6    -0.290581019299E+04   -0.13223E-04   -0.35820E-05  6304   0.674E-03    0.159E-02
DAV:   7    -0.290581020499E+04   -0.11998E-04   -0.61185E-06  5072   0.219E-03    0.952E-03
DAV:   8    -0.290581021950E+04   -0.14513E-04   -0.30152E-06  4992   0.264E-03    0.381E-03
DAV:   9    -0.290581022758E+04   -0.80782E-05   -0.16836E-06  4912   0.173E-03
  64 F= -.29405671E+04 E0= -.29405671E+04  d E =-.994218E-02  mag=     2.0000
       N       E                     dE             d eps       ncg     rms          rms(c)
DAV:   1    -0.290581425220E+04   -0.40327E-02   -0.10021E+00  5504   0.813E-01    0.262E-01
DAV:   2    -0.290581605550E+04   -0.18033E-02   -0.21649E-02  6496   0.116E-01    0.126E-01
DAV:   3    -0.290581588074E+04    0.17476E-03   -0.47717E-04  6720   0.230E-02    0.858E-02
DAV:   4    -0.290581584038E+04    0.40365E-04   -0.20373E-04  6608   0.158E-02    0.386E-02
DAV:   5    -0.290581584178E+04   -0.14052E-05   -0.74791E-05  6464   0.106E-02
  65 F= -.29405734E+04 E0= -.29405734E+04  d E =-.629072E-02  mag=     2.0000
       N       E                     dE             d eps       ncg     rms          rms(c)
DAV:   1    -0.290581636976E+04   -0.52938E-03   -0.50608E-01  5504   0.578E-01    0.191E-01
DAV:   2    -0.290581728139E+04   -0.91163E-03   -0.10985E-02  6560   0.828E-02    0.901E-02
DAV:   3    -0.290581719564E+04    0.85749E-04   -0.24797E-04  6672   0.169E-02    0.619E-02
DAV:   4    -0.290581717658E+04    0.19063E-04   -0.10341E-04  6544   0.117E-02    0.279E-02
DAV:   5    -0.290581718221E+04   -0.56328E-05   -0.36522E-05  5584   0.843E-03
  66 F= -.29405753E+04 E0= -.29405753E+04  d E =-.811185E-02  mag=     2.0000
       N       E                     dE             d eps       ncg     rms          rms(c)
DAV:   1    -0.290581705295E+04    0.12363E-03   -0.71796E-02  5712   0.217E-01    0.735E-02
DAV:   2    -0.290581718731E+04   -0.13436E-03   -0.15658E-03  6672   0.315E-02    0.341E-02
DAV:   3    -0.290581717857E+04    0.87420E-05   -0.35267E-05  5584   0.670E-03    0.238E-02
DAV:   4    -0.290581718088E+04   -0.23153E-05   -0.15503E-05  5072   0.496E-03    0.107E-02
DAV:   5    -0.290581718895E+04   -0.80636E-05   -0.71922E-06  5024   0.405E-03
  67 F= -.29405754E+04 E0= -.29405754E+04  d E =-.829968E-02  mag=     2.0000
       N       E                     dE             d eps       ncg     rms          rms(c)
DAV:   1    -0.290581947150E+04   -0.22906E-02   -0.10685E+00  5504   0.867E-01    0.242E-01
DAV:   2    -0.290582133002E+04   -0.18585E-02   -0.22012E-02  6544   0.119E-01    0.138E-01
DAV:   3    -0.290582115655E+04    0.17347E-03   -0.41244E-04  6768   0.209E-02    0.853E-02
DAV:   4    -0.290582110533E+04    0.51223E-04   -0.37824E-04  6608   0.211E-02    0.302E-02
DAV:   5    -0.290582111992E+04   -0.14590E-04   -0.76018E-05  6720   0.920E-03    0.179E-02
DAV:   6    -0.290582113062E+04   -0.10698E-04   -0.18581E-05  5168   0.485E-03    0.102E-02
DAV:   7    -0.290582114121E+04   -0.10595E-04   -0.36265E-06  4816   0.205E-03    0.597E-03
DAV:   8    -0.290582115096E+04   -0.97476E-05   -0.12092E-06  4816   0.175E-03
  68 F= -.29405801E+04 E0= -.29405801E+04  d E =-.468583E-02  mag=     2.0000
       N       E                     dE             d eps       ncg     rms          rms(c)
DAV:   1    -0.290582109071E+04    0.50499E-04   -0.33386E-01  5504   0.483E-01    0.135E-01
DAV:   2    -0.290582166688E+04   -0.57616E-03   -0.69024E-03  6608   0.661E-02    0.773E-02
DAV:   3    -0.290582160790E+04    0.58972E-04   -0.12628E-04  6768   0.116E-02    0.478E-02
DAV:   4    -0.290582158793E+04    0.19970E-04   -0.11693E-04  6576   0.118E-02    0.166E-02
DAV:   5    -0.290582159472E+04   -0.67811E-05   -0.23138E-05  5312   0.520E-03
  69 F= -.29405810E+04 E0= -.29405810E+04  d E =-.553439E-02  mag=     2.0000
       N       E                     dE             d eps       ncg     rms          rms(c)
DAV:   1    -0.290582416122E+04   -0.25733E-02   -0.14062E+00  5504   0.102E+00    0.268E-01
DAV:   2    -0.290582673061E+04   -0.25694E-02   -0.30209E-02  6512   0.141E-01    0.135E-01
DAV:   3    -0.290582654137E+04    0.18923E-03   -0.59083E-04  6800   0.252E-02    0.900E-02
DAV:   4    -0.290582649734E+04    0.44036E-04   -0.25010E-04  6576   0.186E-02    0.431E-02
DAV:   5    -0.290582649980E+04   -0.24586E-05   -0.11475E-04  6672   0.126E-02    0.198E-02
DAV:   6    -0.290582650351E+04   -0.37179E-05   -0.30644E-05  5840   0.641E-03
  70 F= -.29405866E+04 E0= -.29405866E+04  d E =-.562167E-02  mag=     2.0000
       N       E                     dE             d eps       ncg     rms          rms(c)
DAV:   1    -0.290582452258E+04    0.19772E-02   -0.17036E+00  5504   0.112E+00    0.296E-01
DAV:   2    -0.290582763355E+04   -0.31110E-02   -0.36648E-02  6480   0.155E-01    0.148E-01
DAV:   3    -0.290582739395E+04    0.23961E-03   -0.70012E-04  6816   0.279E-02    0.987E-02
DAV:   4    -0.290582733155E+04    0.62392E-04   -0.30117E-04  6528   0.208E-02    0.472E-02
DAV:   5    -0.290582733525E+04   -0.36996E-05   -0.13954E-04  6640   0.145E-02    0.218E-02
DAV:   6    -0.290582733990E+04   -0.46443E-05   -0.40397E-05  6112   0.741E-03
  71 F= -.29405882E+04 E0= -.29405882E+04  d E =-.724341E-02  mag=     2.0000
       N       E                     dE             d eps       ncg     rms          rms(c)
DAV:   1    -0.290582893736E+04   -0.16021E-02   -0.71745E-01  5504   0.729E-01    0.163E-01
DAV:   2    -0.290583026032E+04   -0.13230E-02   -0.14773E-02  6480   0.974E-02    0.935E-02
DAV:   3    -0.290583019153E+04    0.68785E-04   -0.19986E-04  6832   0.147E-02    0.590E-02
DAV:   4    -0.290583019160E+04   -0.66590E-07   -0.18752E-04  6592   0.165E-02    0.181E-02
DAV:   5    -0.290583020418E+04   -0.12581E-04   -0.49249E-05  6448   0.713E-03    0.129E-02
DAV:   6    -0.290583020860E+04   -0.44166E-05   -0.10552E-05  4880   0.380E-03
  72 F= -.29405915E+04 E0= -.29405915E+04  d E =-.331691E-02  mag=     2.0000
       N       E                     dE             d eps       ncg     rms          rms(c)
DAV:   1    -0.290582551989E+04    0.46843E-02   -0.43962E+00  5504   0.180E+00    0.397E-01
DAV:   2    -0.290583356163E+04   -0.80417E-02   -0.90172E-02  6320   0.241E-01    0.233E-01
DAV:   3    -0.290583310724E+04    0.45439E-03   -0.12507E-03  6864   0.359E-02    0.148E-01
DAV:   4    -0.290583300971E+04    0.97533E-04   -0.11321E-03  6544   0.400E-02    0.464E-02
DAV:   5    -0.290583305892E+04   -0.49212E-04   -0.29780E-04  6656   0.170E-02    0.318E-02
DAV:   6    -0.290583306782E+04   -0.89016E-05   -0.67654E-05  6576   0.911E-03
  73 F= -.29405955E+04 E0= -.29405955E+04  d E =-.728678E-02  mag=     2.0000
       N       E                     dE             d eps       ncg     rms          rms(c)
DAV:   1    -0.290583695584E+04   -0.38969E-02   -0.41085E-01  5536   0.571E-01    0.182E-01
DAV:   2    -0.290583778097E+04   -0.82513E-03   -0.10046E-02  6512   0.848E-02    0.815E-02
DAV:   3    -0.290583769139E+04    0.89580E-04   -0.21027E-04  6704   0.178E-02    0.472E-02
DAV:   4    -0.290583767663E+04    0.14759E-04   -0.14847E-04  6544   0.160E-02    0.160E-02
DAV:   5    -0.290583768629E+04   -0.96602E-05   -0.45586E-05  6336   0.804E-03
  74 F= -.29406003E+04 E0= -.29406003E+04  d E =-.482901E-02  mag=     2.0000
       N       E                     dE             d eps       ncg     rms          rms(c)
DAV:   1    -0.290583890914E+04   -0.12325E-02   -0.37671E-01  5536   0.547E-01    0.177E-01
DAV:   2    -0.290583965702E+04   -0.74788E-03   -0.92028E-03  6640   0.811E-02    0.783E-02
DAV:   3    -0.290583956589E+04    0.91130E-04   -0.19105E-04  6752   0.177E-02    0.454E-02
DAV:   4    -0.290583954154E+04    0.24345E-04   -0.13754E-04  6592   0.166E-02    0.146E-02
DAV:   5    -0.290583954808E+04   -0.65357E-05   -0.51534E-05  6448   0.861E-03
  75 F= -.29406024E+04 E0= -.29406024E+04  d E =-.689287E-02  mag=     2.0000
       N       E                     dE             d eps       ncg     rms          rms(c)
DAV:   1    -0.290583956118E+04   -0.19641E-04   -0.48423E-02  5664   0.196E-01    0.670E-02
DAV:   2    -0.290583965928E+04   -0.98095E-04   -0.11977E-03  6768   0.294E-02    0.283E-02
DAV:   3    -0.290583964863E+04    0.10646E-04   -0.23401E-05  5648   0.707E-03    0.162E-02
DAV:   4    -0.290583964849E+04    0.14057E-06   -0.18820E-05  5296   0.766E-03    0.512E-03
DAV:   5    -0.290583965194E+04   -0.34522E-05   -0.11270E-05  4896   0.404E-03
  76 F= -.29406026E+04 E0= -.29406026E+04  d E =-.706927E-02  mag=     2.0000
       N       E                     dE             d eps       ncg     rms          rms(c)
DAV:   1    -0.290584216973E+04   -0.25212E-02   -0.43453E-01  5504   0.586E-01    0.161E-01
DAV:   2    -0.290584302610E+04   -0.85636E-03   -0.10050E-02  6496   0.834E-02    0.822E-02
DAV:   3    -0.290584295338E+04    0.72722E-04   -0.20189E-04  6752   0.153E-02    0.515E-02
DAV:   4    -0.290584293670E+04    0.16676E-04   -0.16116E-04  6592   0.147E-02    0.182E-02
DAV:   5    -0.290584294018E+04   -0.34785E-05   -0.35201E-05  6000   0.661E-03
  77 F= -.29406061E+04 E0= -.29406061E+04  d E =-.352290E-02  mag=     2.0000
       N       E                     dE             d eps       ncg     rms          rms(c)
DAV:   1    -0.290584263172E+04    0.30498E-03   -0.11140E+00  5504   0.938E-01    0.260E-01
DAV:   2    -0.290584479900E+04   -0.21673E-02   -0.25736E-02  6448   0.134E-01    0.131E-01
DAV:   3    -0.290584460125E+04    0.19774E-03   -0.51776E-04  6752   0.249E-02    0.820E-02
DAV:   4    -0.290584454598E+04    0.55275E-04   -0.41774E-04  6576   0.239E-02    0.289E-02
DAV:   5    -0.290584455290E+04   -0.69246E-05   -0.94810E-05  6672   0.109E-02
  78 F= -.29406081E+04 E0= -.29406081E+04  d E =-.551189E-02  mag=     2.0000
       N       E                     dE             d eps       ncg     rms          rms(c)
DAV:   1    -0.290584669669E+04   -0.21507E-02   -0.44255E-01  5536   0.591E-01    0.157E-01
DAV:   2    -0.290584754293E+04   -0.84624E-03   -0.99292E-03  6624   0.830E-02    0.763E-02
DAV:   3    -0.290584748385E+04    0.59078E-04   -0.18700E-04  6768   0.145E-02    0.480E-02
DAV:   4    -0.290584747578E+04    0.80688E-05   -0.15585E-04  6656   0.150E-02    0.199E-02
DAV:   5    -0.290584748316E+04   -0.73771E-05   -0.38728E-05  6064   0.680E-03
  79 F= -.29406113E+04 E0= -.29406113E+04  d E =-.323828E-02  mag=     2.0000
       N       E                     dE             d eps       ncg     rms          rms(c)
DAV:   1    -0.290584801866E+04   -0.54288E-03   -0.60825E-01  5504   0.693E-01    0.183E-01
DAV:   2    -0.290584916676E+04   -0.11481E-02   -0.13665E-02  6528   0.971E-02    0.898E-02
DAV:   3    -0.290584906988E+04    0.96880E-04   -0.25099E-04  6784   0.170E-02    0.567E-02
DAV:   4    -0.290584904040E+04    0.29486E-04   -0.21889E-04  6576   0.181E-02    0.221E-02
DAV:   5    -0.290584904687E+04   -0.64724E-05   -0.60047E-05  6640   0.839E-03
  80 F= -.29406132E+04 E0= -.29406132E+04  d E =-.516315E-02  mag=     2.0000
       N       E                     dE             d eps       ncg     rms          rms(c)
DAV:   1    -0.290584889950E+04    0.14090E-03   -0.11380E-01  5632   0.300E-01    0.826E-02
DAV:   2    -0.290584911858E+04   -0.21908E-03   -0.26207E-03  6672   0.426E-02    0.391E-02
DAV:   3    -0.290584910165E+04    0.16926E-04   -0.48343E-05  6480   0.791E-03    0.246E-02
DAV:   4    -0.290584910042E+04    0.12303E-05   -0.45071E-05  6144   0.886E-03    0.968E-03
DAV:   5    -0.290584910410E+04   -0.36738E-05   -0.13165E-05  5088   0.420E-03
  81 F= -.29406135E+04 E0= -.29406135E+04  d E =-.537667E-02  mag=     2.0000
[...]
 231 F= -.29408537E+04 E0= -.29408537E+04  d E =-.926901E-03  mag=     2.0000
       N       E                     dE             d eps       ncg     rms          rms(c)
DAV:   1    -0.290601556956E+04    0.75253E-03   -0.53660E-01  5504   0.620E-01    0.144E-01
DAV:   2    -0.290601653370E+04   -0.96415E-03   -0.10878E-02  6416   0.832E-02    0.760E-02
DAV:   3    -0.290601648371E+04    0.49994E-04   -0.16409E-04  6672   0.131E-02    0.469E-02
DAV:   4    -0.290601647296E+04    0.10751E-04   -0.10065E-04  6576   0.123E-02    0.196E-02
DAV:   5    -0.290601647953E+04   -0.65723E-05   -0.33101E-05  5856   0.619E-03
 232 F= -.29408541E+04 E0= -.29408541E+04  d E =-.127873E-02  mag=     2.0000
       N       E                     dE             d eps       ncg     rms          rms(c)
DAV:   1    -0.290601655575E+04   -0.82797E-04   -0.33045E-01  5504   0.493E-01    0.126E-01
DAV:   2    -0.290601715888E+04   -0.60313E-03   -0.69211E-03  6496   0.676E-02    0.634E-02
DAV:   3    -0.290601712601E+04    0.32868E-04   -0.11597E-04  6784   0.114E-02    0.381E-02
DAV:   4    -0.290601712197E+04    0.40485E-05   -0.78800E-05  6496   0.113E-02    0.136E-02
DAV:   5    -0.290601712670E+04   -0.47328E-05   -0.22404E-05  5568   0.522E-03
 233 F= -.29408550E+04 E0= -.29408550E+04  d E =-.888883E-03  mag=     2.0000
       N       E                     dE             d eps       ncg     rms          rms(c)
DAV:   1    -0.290601700555E+04    0.11641E-03   -0.82868E-02  5536   0.247E-01    0.650E-02
DAV:   2    -0.290601715737E+04   -0.15182E-03   -0.17372E-03  6528   0.340E-02    0.315E-02
DAV:   3    -0.290601714946E+04    0.79087E-05   -0.27768E-05  5744   0.592E-03    0.188E-02
DAV:   4    -0.290601714943E+04    0.27823E-07   -0.21185E-05  5456   0.633E-03    0.613E-03
DAV:   5    -0.290601715138E+04   -0.19469E-05   -0.74398E-06  4944   0.305E-03
 234 F= -.29408551E+04 E0= -.29408551E+04  d E =-.103464E-02  mag=     2.0000
       N       E                     dE             d eps       ncg     rms          rms(c)
DAV:   1    -0.290601754723E+04   -0.39779E-03   -0.16165E-01  5504   0.354E-01    0.938E-02
DAV:   2    -0.290601784272E+04   -0.29549E-03   -0.34661E-03  6464   0.493E-02    0.450E-02
DAV:   3    -0.290601782115E+04    0.21562E-04   -0.62144E-05  6688   0.858E-03    0.267E-02
DAV:   4    -0.290601781735E+04    0.38011E-05   -0.42355E-05  6288   0.816E-03    0.103E-02
DAV:   5    -0.290601781925E+04   -0.18949E-05   -0.11549E-05  4960   0.388E-03
 235 F= -.29408559E+04 E0= -.29408559E+04  d E =-.835501E-03  mag=     2.0000
       N       E                     dE             d eps       ncg     rms          rms(c)
DAV:   1    -0.290601774605E+04    0.71299E-04   -0.12660E-01  5536   0.314E-01    0.850E-02
DAV:   2    -0.290601797792E+04   -0.23186E-03   -0.27277E-03  6496   0.438E-02    0.398E-02
DAV:   3    -0.290601796048E+04    0.17431E-04   -0.48092E-05  6304   0.776E-03    0.235E-02
DAV:   4    -0.290601795664E+04    0.38418E-05   -0.34376E-05  6160   0.766E-03    0.905E-03
DAV:   5    -0.290601795801E+04   -0.13702E-05   -0.10344E-05  4912   0.373E-03
 236 F= -.29408562E+04 E0= -.29408562E+04  d E =-.112263E-02  mag=     2.0000
       N       E                     dE             d eps       ncg     rms          rms(c)
DAV:   1    -0.290601826755E+04   -0.31090E-03   -0.16386E-01  5536   0.358E-01    0.868E-02
DAV:   2    -0.290601856300E+04   -0.29546E-03   -0.34269E-03  6512   0.490E-02    0.440E-02
DAV:   3    -0.290601854337E+04    0.19632E-04   -0.60443E-05  6640   0.843E-03    0.268E-02
DAV:   4    -0.290601853922E+04    0.41493E-05   -0.40934E-05  6352   0.819E-03    0.834E-03
DAV:   5    -0.290601854108E+04   -0.18564E-05   -0.11086E-05  5040   0.379E-03
 237 F= -.29408570E+04 E0= -.29408570E+04  d E =-.742100E-03  mag=     2.0000
       N       E                     dE             d eps       ncg     rms          rms(c)
DAV:   1    -0.290601846895E+04    0.70268E-04   -0.11065E-01  5536   0.294E-01    0.725E-02
DAV:   2    -0.290601866982E+04   -0.20087E-03   -0.23273E-03  6528   0.403E-02    0.359E-02
DAV:   3    -0.290601865645E+04    0.13372E-04   -0.40064E-05  6384   0.703E-03    0.218E-02
DAV:   4    -0.290601865371E+04    0.27440E-05   -0.28022E-05  5888   0.705E-03    0.644E-03
DAV:   5    -0.290601865513E+04   -0.14246E-05   -0.86199E-06  4896   0.333E-03
 238 F= -.29408572E+04 E0= -.29408572E+04  d E =-.986906E-03  mag=     2.0000
       N       E                     dE             d eps       ncg     rms          rms(c)
DAV:   1    -0.290601890379E+04   -0.25008E-03   -0.21406E-01  5536   0.413E-01    0.103E-01
DAV:   2    -0.290601929444E+04   -0.39065E-03   -0.45620E-03  6480   0.571E-02    0.495E-02
DAV:   3    -0.290601926596E+04    0.28477E-04   -0.82071E-05  6752   0.101E-02    0.306E-02
DAV:   4    -0.290601925918E+04    0.67766E-05   -0.51501E-05  6496   0.908E-03    0.118E-02
DAV:   5    -0.290601926103E+04   -0.18430E-05   -0.14926E-05  5056   0.435E-03
 239 F= -.29408580E+04 E0= -.29408580E+04  d E =-.774500E-03  mag=     2.0000
       N       E                     dE             d eps       ncg     rms          rms(c)
DAV:   1    -0.290601919907E+04    0.60117E-04   -0.44606E-02  5568   0.188E-01    0.498E-02
DAV:   2    -0.290601928146E+04   -0.82395E-04   -0.96559E-04  6592   0.262E-02    0.225E-02
DAV:   3    -0.290601927593E+04    0.55323E-05   -0.16049E-05  5168   0.485E-03    0.138E-02
DAV:   4    -0.290601927510E+04    0.82474E-06   -0.11980E-05  4848   0.478E-03    0.568E-03
DAV:   5    -0.290601927611E+04   -0.10065E-05   -0.51897E-06  4864   0.249E-03
 240 F= -.29408581E+04 E0= -.29408581E+04  d E =-.866570E-03  mag=     2.0000
       N       E                     dE             d eps       ncg     rms          rms(c)
DAV:   1    -0.290601944932E+04   -0.17422E-03   -0.16117E-01  5536   0.363E-01    0.939E-02
DAV:   2    -0.290601974993E+04   -0.30060E-03   -0.35057E-03  6480   0.506E-02    0.436E-02
DAV:   3    -0.290601972555E+04    0.24382E-04   -0.60231E-05  6720   0.919E-03    0.268E-02
DAV:   4    -0.290601971881E+04    0.67361E-05   -0.45805E-05  6416   0.914E-03    0.935E-03
DAV:   5    -0.290601972053E+04   -0.17219E-05   -0.14693E-05  5040   0.425E-03
 241 F= -.29408587E+04 E0= -.29408587E+04  d E =-.598501E-03  mag=     2.0000
       N       E                     dE             d eps       ncg     rms          rms(c)
DAV:   1    -0.290601967593E+04    0.42876E-04   -0.22029E-02  5568   0.134E-01    0.375E-02
DAV:   2    -0.290601971762E+04   -0.41682E-04   -0.48680E-04  6592   0.189E-02    0.161E-02
DAV:   3    -0.290601971440E+04    0.32152E-05   -0.74791E-06  4960   0.373E-03    0.984E-03
DAV:   4    -0.290601971396E+04    0.44412E-06   -0.75292E-06  4720   0.427E-03    0.381E-03
DAV:   5    -0.290601971459E+04   -0.63790E-06   -0.37407E-06  4800   0.207E-03
 242 F= -.29408587E+04 E0= -.29408587E+04  d E =-.649533E-03  mag=     2.0000
       N       E                     dE             d eps       ncg     rms          rms(c)
DAV:   1    -0.290601983210E+04   -0.11814E-03   -0.18348E-01  5536   0.389E-01    0.950E-02
DAV:   2    -0.290602017524E+04   -0.34315E-03   -0.39756E-03  6480   0.537E-02    0.459E-02
DAV:   3    -0.290602015004E+04    0.25205E-04   -0.67158E-05  6720   0.919E-03    0.287E-02
DAV:   4    -0.290602014460E+04    0.54387E-05   -0.51085E-05  6528   0.903E-03    0.100E-02
DAV:   5    -0.290602014641E+04   -0.18139E-05   -0.13650E-05  5072   0.403E-03
 243 F= -.29408593E+04 E0= -.29408593E+04  d E =-.590232E-03  mag=     2.0000
       N       E                     dE             d eps       ncg     rms          rms(c)
DAV:   1    -0.290602009436E+04    0.50237E-04   -0.43895E-02  5568   0.190E-01    0.491E-02
DAV:   2    -0.290602017692E+04   -0.82557E-04   -0.96032E-04  6544   0.265E-02    0.223E-02
DAV:   3    -0.290602017119E+04    0.57318E-05   -0.14924E-05  5216   0.471E-03    0.138E-02
DAV:   4    -0.290602017050E+04    0.69186E-06   -0.14327E-05  4896   0.512E-03    0.494E-03
DAV:   5    -0.290602017134E+04   -0.84238E-06   -0.52262E-06  4848   0.238E-03
 244 F= -.29408594E+04 E0= -.29408594E+04  d E =-.692657E-03  mag=     2.0000
       N       E                     dE             d eps       ncg     rms          rms(c)
DAV:   1    -0.290602036535E+04   -0.19485E-03   -0.18038E-01  5536   0.383E-01    0.926E-02
DAV:   2    -0.290602070086E+04   -0.33552E-03   -0.38973E-03  6448   0.530E-02    0.452E-02
DAV:   3    -0.290602067683E+04    0.24039E-04   -0.67686E-05  6784   0.914E-03    0.281E-02
DAV:   4    -0.290602067070E+04    0.61273E-05   -0.48016E-05  6272   0.923E-03    0.903E-03
DAV:   5    -0.290602067240E+04   -0.17053E-05   -0.14988E-05  5248   0.433E-03
 245 F= -.29408601E+04 E0= -.29408601E+04  d E =-.648075E-03  mag=     2.0000
       N       E                     dE             d eps       ncg     rms          rms(c)
DAV:   1    -0.290602060942E+04    0.61277E-04   -0.64227E-02  5536   0.229E-01    0.575E-02
DAV:   2    -0.290602072886E+04   -0.11944E-03   -0.13988E-03  6528   0.318E-02    0.268E-02
DAV:   3    -0.290602072048E+04    0.83818E-05   -0.23248E-05  5680   0.573E-03    0.165E-02
DAV:   4    -0.290602071849E+04    0.19915E-05   -0.18511E-05  5184   0.632E-03    0.508E-03
DAV:   5    -0.290602071951E+04   -0.10221E-05   -0.77289E-06  4848   0.301E-03
 246 F= -.29408602E+04 E0= -.29408602E+04  d E =-.782936E-03  mag=     2.0000
       N       E                     dE             d eps       ncg     rms          rms(c)
DAV:   1    -0.290602100022E+04   -0.28173E-03   -0.15802E-01  5536   0.356E-01    0.819E-02
DAV:   2    -0.290602129255E+04   -0.29232E-03   -0.33508E-03  6480   0.486E-02    0.416E-02
DAV:   3    -0.290602127417E+04    0.18377E-04   -0.55220E-05  6688   0.799E-03    0.259E-02
DAV:   4    -0.290602127118E+04    0.29932E-05   -0.41660E-05  6368   0.804E-03    0.758E-03
DAV:   5    -0.290602127304E+04   -0.18629E-05   -0.10710E-05  5040   0.358E-03
 247 F= -.29408609E+04 E0= -.29408609E+04  d E =-.651088E-03  mag=     2.0000
       N       E                     dE             d eps       ncg     rms          rms(c)
DAV:   1    -0.290602115706E+04    0.11411E-03   -0.15248E-01  5536   0.350E-01    0.818E-02
DAV:   2    -0.290602144108E+04   -0.28402E-03   -0.32486E-03  6512   0.478E-02    0.406E-02
DAV:   3    -0.290602142293E+04    0.18154E-04   -0.52626E-05  6656   0.792E-03    0.252E-02
DAV:   4    -0.290602141973E+04    0.31970E-05   -0.40607E-05  6288   0.812E-03    0.728E-03
DAV:   5    -0.290602142137E+04   -0.16373E-05   -0.10973E-05  5008   0.367E-03
 248 F= -.29408611E+04 E0= -.29408611E+04  d E =-.895355E-03  mag=     2.0000
       N       E                     dE             d eps       ncg     rms          rms(c)
DAV:   1    -0.290602175946E+04   -0.33973E-03   -0.16210E-01  5536   0.358E-01    0.819E-02
DAV:   2    -0.290602206010E+04   -0.30064E-03   -0.34181E-03  6480   0.488E-02    0.415E-02
DAV:   3    -0.290602204162E+04    0.18483E-04   -0.52452E-05  6608   0.800E-03    0.261E-02
DAV:   4    -0.290602203796E+04    0.36566E-05   -0.40904E-05  6320   0.859E-03    0.837E-03
DAV:   5    -0.290602203969E+04   -0.17251E-05   -0.13405E-05  5072   0.389E-03
 249 F= -.29408618E+04 E0= -.29408618E+04  d E =-.666786E-03  mag=     2.0000
       N       E                     dE             d eps       ncg     rms          rms(c)
DAV:   1    -0.290602192515E+04    0.11281E-03   -0.18611E-01  5536   0.383E-01    0.887E-02
DAV:   2    -0.290602227088E+04   -0.34573E-03   -0.39413E-03  6480   0.524E-02    0.444E-02
DAV:   3    -0.290602224961E+04    0.21268E-04   -0.60861E-05  6656   0.871E-03    0.278E-02
DAV:   4    -0.290602224449E+04    0.51188E-05   -0.46526E-05  6320   0.957E-03    0.870E-03
DAV:   5    -0.290602224663E+04   -0.21419E-05   -0.16869E-05  5136   0.443E-03
 250 F= -.29408620E+04 E0= -.29408620E+04  d E =-.925840E-03  mag=     2.0000
       N       E                     dE             d eps       ncg     rms          rms(c)
DAV:   1    -0.290602261728E+04   -0.37279E-03   -0.17248E-01  5536   0.371E-01    0.914E-02
DAV:   2    -0.290602293813E+04   -0.32085E-03   -0.37365E-03  6448   0.515E-02    0.439E-02
DAV:   3    -0.290602291731E+04    0.20828E-04   -0.64638E-05  6752   0.876E-03    0.271E-02
DAV:   4    -0.290602291341E+04    0.38947E-05   -0.45232E-05  6256   0.882E-03    0.845E-03
DAV:   5    -0.290602291549E+04   -0.20762E-05   -0.13567E-05  5200   0.401E-03
 251 F= -.29408627E+04 E0= -.29408627E+04  d E =-.692614E-03  mag=     2.0000
       N       E                     dE             d eps       ncg     rms          rms(c)
DAV:   1    -0.290602290490E+04    0.85160E-05   -0.90907E-02  5536   0.269E-01    0.680E-02
DAV:   2    -0.290602307339E+04   -0.16849E-03   -0.19670E-03  6464   0.375E-02    0.316E-02
DAV:   3    -0.290602306210E+04    0.11292E-04   -0.33284E-05  6240   0.653E-03    0.194E-02
DAV:   4    -0.290602306011E+04    0.19834E-05   -0.24422E-05  5568   0.695E-03    0.577E-03
DAV:   5    -0.290602306140E+04   -0.12844E-05   -0.89357E-06  4912   0.325E-03
 252 F= -.29408629E+04 E0= -.29408629E+04  d E =-.855866E-03  mag=     2.0000
       N       E                     dE             d eps       ncg     rms          rms(c)
DAV:   1    -0.290602334380E+04   -0.28369E-03   -0.14724E-01  5536   0.343E-01    0.852E-02
DAV:   2    -0.290602361935E+04   -0.27555E-03   -0.32048E-03  6496   0.478E-02    0.422E-02
DAV:   3    -0.290602359933E+04    0.20017E-04   -0.56382E-05  6656   0.848E-03    0.259E-02
DAV:   4    -0.290602359498E+04    0.43530E-05   -0.40996E-05  6416   0.842E-03    0.763E-03
DAV:   5    -0.290602359663E+04   -0.16507E-05   -0.12085E-05  5056   0.399E-03
 253 F= -.29408635E+04 E0= -.29408635E+04  d E =-.604443E-03  mag=     2.0000
       N       E                     dE             d eps       ncg     rms          rms(c)
DAV:   1    -0.290602358446E+04    0.10519E-04   -0.32477E-02  5600   0.161E-01    0.419E-02
DAV:   2    -0.290602364536E+04   -0.60893E-04   -0.71279E-04  6560   0.226E-02    0.197E-02
DAV:   3    -0.290602364096E+04    0.43992E-05   -0.11236E-05  5040   0.421E-03    0.120E-02
DAV:   4    -0.290602364027E+04    0.68487E-06   -0.10902E-05  4928   0.484E-03    0.325E-03
DAV:   5    -0.290602364106E+04   -0.78790E-06   -0.45336E-06  4800   0.229E-03
 254 F= -.29408636E+04 E0= -.29408636E+04  d E =-.681404E-03  mag=     2.0000
       N       E                     dE             d eps       ncg     rms          rms(c)
DAV:   1    -0.290602384536E+04   -0.20509E-03   -0.11059E-01  5536   0.302E-01    0.818E-02
DAV:   2    -0.290602405076E+04   -0.20540E-03   -0.24521E-03  6480   0.425E-02    0.374E-02
DAV:   3    -0.290602403299E+04    0.17774E-04   -0.47511E-05  6672   0.814E-03    0.225E-02
DAV:   4    -0.290602402845E+04    0.45333E-05   -0.31795E-05  6128   0.748E-03    0.697E-03
DAV:   5    -0.290602402955E+04   -0.10945E-05   -0.97145E-06  4976   0.359E-03
 255 F= -.29408640E+04 E0= -.29408640E+04  d E =-.477401E-03  mag=     2.0000
       N       E                     dE             d eps       ncg     rms          rms(c)
DAV:   1    -0.290602402096E+04    0.74925E-05   -0.72551E-03  5696   0.774E-02    0.234E-02
DAV:   2    -0.290602403467E+04   -0.13712E-04   -0.16431E-04  6672   0.111E-02    0.962E-03
DAV:   3    -0.290602403356E+04    0.11129E-05   -0.26921E-06  4800   0.235E-03    0.566E-03
DAV:   4    -0.290602403355E+04    0.11700E-07   -0.27879E-06  4704   0.273E-03    0.174E-03
DAV:   5    -0.290602403385E+04   -0.30501E-06   -0.14212E-06  4752   0.130E-03
 256 F= -.29408641E+04 E0= -.29408641E+04  d E =-.504495E-03  mag=     2.0000
       N       E                     dE             d eps       ncg     rms          rms(c)
DAV:   1    -0.290602424429E+04   -0.21074E-03   -0.85983E-02  5536   0.269E-01    0.723E-02
DAV:   2    -0.290602440172E+04   -0.15743E-03   -0.19040E-03  6512   0.380E-02    0.333E-02
DAV:   3    -0.290602438749E+04    0.14232E-04   -0.37457E-05  6224   0.709E-03    0.203E-02
DAV:   4    -0.290602438348E+04    0.40074E-05   -0.27713E-05  5792   0.685E-03    0.680E-03
DAV:   5    -0.290602438418E+04   -0.70233E-06   -0.83569E-06  4880   0.319E-03
 257 F= -.29408645E+04 E0= -.29408645E+04  d E =-.424367E-03  mag=     2.0000
       N       E                     dE             d eps       ncg     rms          rms(c)
DAV:   1    -0.290602437105E+04    0.12427E-04   -0.15305E-02  5568   0.114E-01    0.326E-02
DAV:   2    -0.290602439921E+04   -0.28155E-04   -0.34399E-04  6656   0.162E-02    0.140E-02
DAV:   3    -0.290602439650E+04    0.27132E-05   -0.60605E-06  4880   0.321E-03    0.844E-03
DAV:   4    -0.290602439581E+04    0.68720E-06   -0.60789E-06  4688   0.360E-03    0.269E-03
DAV:   5    -0.290602439611E+04   -0.29994E-06   -0.25150E-06  4752   0.169E-03
 258 F= -.29408645E+04 E0= -.29408645E+04  d E =-.467554E-03  mag=     2.0000
       N       E                     dE             d eps       ncg     rms          rms(c)
DAV:   1    -0.290602452726E+04   -0.13145E-03   -0.73617E-02  5536   0.251E-01    0.614E-02
DAV:   2    -0.290602465982E+04   -0.13256E-03   -0.15696E-03  6480   0.346E-02    0.301E-02
DAV:   3    -0.290602464866E+04    0.11158E-04   -0.28163E-05  5808   0.616E-03    0.185E-02
DAV:   4    -0.290602464575E+04    0.29118E-05   -0.24131E-05  5488   0.643E-03    0.529E-03
DAV:   5    -0.290602464685E+04   -0.10970E-05   -0.74016E-06  4752   0.297E-03
 259 F= -.29408649E+04 E0= -.29408649E+04  d E =-.351264E-03  mag=     2.0000
       N       E                     dE             d eps       ncg     rms          rms(c)
DAV:   1    -0.290602459425E+04    0.51499E-04   -0.23218E-02  5568   0.141E-01    0.358E-02
DAV:   2    -0.290602463632E+04   -0.42068E-04   -0.49830E-04  6624   0.195E-02    0.167E-02
DAV:   3    -0.290602463276E+04    0.35623E-05   -0.80565E-06  4896   0.359E-03    0.103E-02
DAV:   4    -0.290602463196E+04    0.79890E-06   -0.88373E-06  4736   0.416E-03    0.274E-03
DAV:   5    -0.290602463248E+04   -0.51444E-06   -0.33345E-06  4720   0.194E-03
 260 F= -.29408649E+04 E0= -.29408649E+04  d E =-.393387E-03  mag=     2.0000
       N       E                     dE             d eps       ncg     rms          rms(c)
DAV:   1    -0.290602466229E+04   -0.30333E-04   -0.71615E-02  5536   0.249E-01    0.685E-02
DAV:   2    -0.290602479492E+04   -0.13263E-03   -0.16028E-03  6544   0.355E-02    0.306E-02
DAV:   3    -0.290602478138E+04    0.13543E-04   -0.32930E-05  6288   0.674E-03    0.184E-02
DAV:   4    -0.290602477740E+04    0.39781E-05   -0.19633E-05  5152   0.592E-03    0.745E-03
DAV:   5    -0.290602477804E+04   -0.64174E-06   -0.75720E-06  4832   0.307E-03
 261 F= -.29408652E+04 E0= -.29408652E+04  d E =-.282746E-03  mag=     2.0000
       N       E                     dE             d eps       ncg     rms          rms(c)
DAV:   1    -0.290602476841E+04    0.89864E-05   -0.40263E-04  6496   0.188E-02    0.740E-03
DAV:   2    -0.290602476930E+04   -0.88557E-06   -0.94926E-06  4928   0.292E-03    0.284E-03
DAV:   3    -0.290602476948E+04   -0.18382E-06   -0.66247E-07  4688   0.105E-03    0.162E-03
DAV:   4    -0.290602476975E+04   -0.26613E-06   -0.12514E-07  4688   0.833E-04    0.868E-04
DAV:   5    -0.290602476998E+04   -0.23522E-06   -0.10397E-07  4688   0.614E-04
 262 F= -.29408652E+04 E0= -.29408652E+04  d E =-.285015E-03  mag=     2.0000
       N       E                     dE             d eps       ncg     rms          rms(c)
DAV:   1    -0.290602477310E+04   -0.33519E-05   -0.45011E-02  5536   0.198E-01    0.555E-02
DAV:   2    -0.290602485740E+04   -0.84303E-04   -0.10145E-03  6592   0.283E-02    0.247E-02
DAV:   3    -0.290602484833E+04    0.90757E-05   -0.19831E-05  5184   0.536E-03    0.147E-02
DAV:   4    -0.290602484548E+04    0.28517E-05   -0.15439E-05  4736   0.492E-03    0.541E-03
DAV:   5    -0.290602484616E+04   -0.68860E-06   -0.53247E-06  4816   0.241E-03
 263 F= -.29408655E+04 E0= -.29408655E+04  d E =-.251391E-03  mag=     2.0000
