       N       E                     dE             d eps       ncg     rms          rms(c)
DAV:   1     0.732445966730E+02    0.73245E+02   -0.15619E+03   128   0.207E+02
DAV:   2    -0.268194647533E+01   -0.75927E+02   -0.75617E+02   112   0.735E+01
DAV:   3    -0.147655114263E+02   -0.12084E+02   -0.12084E+02   128   0.367E+01
DAV:   4    -0.148547460842E+02   -0.89235E-01   -0.89235E-01    64   0.330E+00
DAV:   5    -0.148556932859E+02   -0.94720E-03   -0.94720E-03    96   0.350E-01    0.104E+01
DAV:   6    -0.936322901943E+01    0.54925E+01   -0.90816E+00    96   0.115E+01    0.423E+00
DAV:   7    -0.125674193197E+02   -0.32042E+01   -0.22191E+00    64   0.494E+00    0.219E+00
DAV:   8    -0.139661194990E+02   -0.13987E+01   -0.72520E-01    80   0.282E+00    0.994E-01
DAV:   9    -0.142269450726E+02   -0.26083E+00   -0.30602E-02   128   0.781E-01    0.501E-01
DAV:  10    -0.143839280937E+02   -0.15698E+00   -0.13031E-02    64   0.520E-01    0.286E-01
DAV:  11    -0.144664033187E+02   -0.82475E-01   -0.48054E-03    64   0.292E-01    0.223E-01
DAV:  12    -0.145633133262E+02   -0.96910E-01   -0.66311E-03    64   0.301E-01    0.165E-01
DAV:  13    -0.146586569993E+02   -0.95344E-01   -0.14391E-02    96   0.364E-01    0.972E-02
DAV:  14    -0.147096948138E+02   -0.51038E-01   -0.17337E-03   128   0.134E-01    0.775E-02
DAV:  15    -0.147382393514E+02   -0.28545E-01   -0.10319E-03   112   0.964E-02    0.554E-02
DAV:  16    -0.147505549308E+02   -0.12316E-01   -0.70144E-05    96   0.369E-02    0.442E-02
DAV:  17    -0.147606788844E+02   -0.10124E-01   -0.11009E-04   112   0.313E-02    0.325E-02
DAV:  18    -0.147659581362E+02   -0.52793E-02   -0.20743E-05   128   0.211E-02    0.227E-02
DAV:  19    -0.147679214877E+02   -0.19634E-02   -0.12215E-05   128   0.141E-02    0.168E-02
DAV:  20    -0.147697134703E+02   -0.17920E-02   -0.25431E-05    80   0.142E-02    0.113E-02
DAV:  21    -0.147695189475E+02    0.19452E-03   -0.24609E-05   112   0.152E-02    0.727E-03
DAV:  22    -0.147699026971E+02   -0.38375E-03   -0.48815E-06    64   0.984E-03    0.471E-03
DAV:  23    -0.147704666247E+02   -0.56393E-03   -0.35803E-06    96   0.711E-03    0.265E-03
DAV:  24    -0.147708862454E+02   -0.41962E-03   -0.93553E-07    96   0.379E-03    0.171E-03
DAV:  25    -0.147713925582E+02   -0.50631E-03   -0.12936E-06    64   0.335E-03    0.106E-03
DAV:  26    -0.147716497943E+02   -0.25724E-03   -0.39300E-07    80   0.194E-03    0.733E-04
DAV:  27    -0.147718750817E+02   -0.22529E-03   -0.15912E-07   112   0.154E-03    0.458E-04
DAV:  28    -0.147720197948E+02   -0.14471E-03   -0.98638E-08    80   0.123E-03    0.242E-04
DAV:  29    -0.147720612902E+02   -0.41495E-04   -0.87276E-09   128   0.643E-04    0.149E-04
DAV:  30    -0.147720955603E+02   -0.34270E-04   -0.70137E-09   128   0.464E-04    0.730E-05
DAV:  31    -0.147721072408E+02   -0.11680E-04   -0.15618E-09   128   0.280E-04    0.414E-05
DAV:  32    -0.147721128625E+02   -0.56217E-05    0.18501E-09    96   0.183E-04
   1 F= -.14783295E+02 E0= -.14783295E+02  d E =-.147833E+02  mag=     0.0000
       N       E                     dE             d eps       ncg     rms          rms(c)
DAV:   1    -0.146382373910E+02    0.13387E+00   -0.94495E+00    64   0.182E+01    0.134E+00
DAV:   2    -0.146300615239E+02    0.81759E-02   -0.17979E-01   128   0.233E+00    0.619E-01
DAV:   3    -0.146236615324E+02    0.64000E-02   -0.23670E-02   128   0.797E-01    0.230E-01
DAV:   4    -0.146235564234E+02    0.10511E-03   -0.33515E-03   128   0.244E-01    0.105E-01
DAV:   5    -0.146237653133E+02   -0.20889E-03   -0.49667E-04   128   0.976E-02    0.488E-02
DAV:   6    -0.146239053527E+02   -0.14004E-03   -0.12082E-04   128   0.422E-02    0.910E-03
DAV:   7    -0.146240177641E+02   -0.11241E-03   -0.17186E-05   128   0.184E-02    0.599E-03
DAV:   8    -0.146241487006E+02   -0.13094E-03   -0.13000E-05   128   0.124E-02    0.308E-03
DAV:   9    -0.146242091793E+02   -0.60479E-04   -0.20437E-06   128   0.488E-03    0.227E-03
DAV:  10    -0.146243276885E+02   -0.11851E-03   -0.11196E-05   128   0.953E-03    0.112E-03
DAV:  11    -0.146243659725E+02   -0.38284E-04   -0.13838E-06   128   0.330E-03    0.772E-04
DAV:  12    -0.146243959174E+02   -0.29945E-04   -0.67000E-07    96   0.208E-03    0.413E-04
DAV:  13    -0.146244114115E+02   -0.15494E-04   -0.24871E-07   128   0.124E-03    0.288E-04
DAV:  14    -0.146244227205E+02   -0.11309E-04   -0.14532E-07    64   0.954E-04    0.150E-04
DAV:  15    -0.146244270882E+02   -0.43677E-05   -0.17212E-08   128   0.405E-04
   2 F= -.14635606E+02 E0= -.14635606E+02  d E =0.147689E+00  mag=     0.0000
       N       E                     dE             d eps       ncg     rms          rms(c)
DAV:   1    -0.147809251847E+02   -0.15650E+00   -0.77268E+00    64   0.165E+01    0.130E+00
DAV:   2    -0.147793490086E+02    0.15762E-02   -0.17160E-01    64   0.228E+00    0.556E-01
DAV:   3    -0.147733803560E+02    0.59687E-02   -0.16809E-02   128   0.680E-01    0.218E-01
DAV:   4    -0.147730058384E+02    0.37452E-03   -0.26086E-03   128   0.269E-01    0.819E-02
DAV:   5    -0.147731124162E+02   -0.10658E-03   -0.13088E-04   128   0.590E-02    0.248E-02
DAV:   6    -0.147732018391E+02   -0.89423E-04   -0.47653E-05   128   0.288E-02    0.802E-03
DAV:   7    -0.147733555428E+02   -0.15370E-03   -0.10417E-05   128   0.120E-02    0.378E-03
DAV:   8    -0.147734767967E+02   -0.12125E-03   -0.73069E-06   128   0.758E-03    0.261E-03
DAV:   9    -0.147736079123E+02   -0.13112E-03   -0.76362E-06   128   0.690E-03    0.171E-03
DAV:  10    -0.147737037679E+02   -0.95856E-04   -0.61629E-06   128   0.575E-03    0.101E-03
DAV:  11    -0.147737648948E+02   -0.61127E-04   -0.34701E-06    64   0.396E-03    0.559E-04
DAV:  12    -0.147737872199E+02   -0.22325E-04   -0.49708E-07   128   0.181E-03    0.330E-04
DAV:  13    -0.147737991959E+02   -0.11976E-04   -0.12124E-07   128   0.959E-04    0.225E-04
DAV:  14    -0.147738101427E+02   -0.10947E-04   -0.20580E-07    64   0.102E-03    0.123E-04
DAV:  15    -0.147738131805E+02   -0.30378E-05   -0.13305E-08   128   0.352E-04
   3 F= -.14784995E+02 E0= -.14784995E+02  d E =-.170002E-02  mag=     0.0000
       N       E                     dE             d eps       ncg     rms          rms(c)
DAV:   1    -0.147738162173E+02   -0.60746E-05   -0.27644E-06    96   0.986E-03    0.811E-04
DAV:   2    -0.147738166209E+02   -0.40358E-06   -0.50323E-08   128   0.118E-03    0.335E-04
DAV:   3    -0.147738170545E+02   -0.43355E-06   -0.58462E-09    96   0.414E-04    0.125E-04
DAV:   4    -0.147738173954E+02   -0.34091E-06   -0.26160E-10   128   0.143E-04    0.515E-05
DAV:   5    -0.147738176799E+02   -0.28458E-06    0.43489E-10   128   0.611E-05
   4 F= -.14785000E+02 E0= -.14785000E+02  d E =-.170452E-02  mag=     0.0000
       N       E                     dE             d eps       ncg     rms          rms(c)
DAV:   1    -0.147739199407E+02   -0.10255E-03   -0.15444E-02    64   0.698E-01    0.294E-02
DAV:   2    -0.147739209156E+02   -0.97494E-06   -0.15904E-04    96   0.741E-02    0.186E-02
DAV:   3    -0.147739229892E+02   -0.20736E-05   -0.74281E-06   128   0.128E-02    0.530E-03
DAV:   4    -0.147739246555E+02   -0.16663E-05   -0.13659E-06   128   0.614E-03    0.129E-03
DAV:   5    -0.147739249456E+02   -0.29007E-06   -0.12570E-07   128   0.155E-03
   5 F= -.14785107E+02 E0= -.14785107E+02  d E =-.107264E-03  mag=     0.0000
       N       E                     dE             d eps       ncg     rms          rms(c)
DAV:   1    -0.147742150771E+02   -0.29042E-03   -0.13907E-01    64   0.209E+00    0.891E-02
DAV:   2    -0.147742334198E+02   -0.18343E-04   -0.13715E-03   128   0.222E-01    0.551E-02
DAV:   3    -0.147742363976E+02   -0.29778E-05   -0.66019E-05   128   0.380E-02    0.159E-02
DAV:   4    -0.147742490564E+02   -0.12659E-04   -0.12053E-05   128   0.181E-02    0.386E-03
DAV:   5    -0.147742512108E+02   -0.21545E-05   -0.11973E-06   128   0.497E-03
   6 F= -.14785433E+02 E0= -.14785433E+02  d E =-.433524E-03  mag=     0.0000
       N       E                     dE             d eps       ncg     rms          rms(c)
DAV:   1    -0.147745219724E+02   -0.27292E-03   -0.55649E-01    64   0.419E+00    0.179E-01
DAV:   2    -0.147746283558E+02   -0.10638E-03   -0.53901E-03   128   0.428E-01    0.110E-01
DAV:   3    -0.147746083172E+02    0.20039E-04   -0.26648E-04   128   0.771E-02    0.315E-02
DAV:   4    -0.147746488120E+02   -0.40495E-04   -0.48615E-05   128   0.362E-02    0.781E-03
DAV:   5    -0.147746565156E+02   -0.77036E-05   -0.42107E-06   128   0.903E-03
   7 F= -.14785838E+02 E0= -.14785838E+02  d E =-.838804E-03  mag=     0.0000
       N       E                     dE             d eps       ncg     rms          rms(c)
DAV:   1    -0.147740107807E+02    0.63803E-03   -0.22285E+00    64   0.838E+00    0.360E-01
DAV:   2    -0.147745591578E+02   -0.54838E-03   -0.21592E-02    96   0.853E-01    0.220E-01
DAV:   3    -0.147744050414E+02    0.15412E-03   -0.10897E-03   128   0.155E-01    0.638E-02
DAV:   4    -0.147745229931E+02   -0.11795E-03   -0.21697E-04   128   0.746E-02    0.163E-02
DAV:   5    -0.147745428084E+02   -0.19815E-04   -0.16952E-05   128   0.174E-02    0.819E-03
DAV:   6    -0.147745621552E+02   -0.19347E-04   -0.43262E-06   128   0.912E-03    0.148E-03
DAV:   7    -0.147745729805E+02   -0.10825E-04   -0.60690E-07   128   0.308E-03    0.843E-04
DAV:   8    -0.147745838040E+02   -0.10823E-04   -0.36451E-07   128   0.151E-03    0.445E-04
DAV:   9    -0.147745942254E+02   -0.10421E-04   -0.38125E-07    96   0.143E-03    0.287E-04
DAV:  10    -0.147746008836E+02   -0.66582E-05   -0.19043E-07    96   0.104E-03
   8 F= -.14785783E+02 E0= -.14785783E+02  d E =-.783074E-03  mag=     0.0000
       N       E                     dE             d eps       ncg     rms          rms(c)
DAV:   1    -0.147745171916E+02    0.77034E-04   -0.66792E-01    64   0.458E+00    0.191E-01
DAV:   2    -0.147747648630E+02   -0.24767E-03   -0.72697E-03    96   0.493E-01    0.123E-01
DAV:   3    -0.147747231953E+02    0.41668E-04   -0.33321E-04   128   0.858E-02    0.362E-02
DAV:   4    -0.147747677448E+02   -0.44550E-04   -0.57256E-05   128   0.408E-02    0.882E-03
DAV:   5    -0.147747745816E+02   -0.68368E-05   -0.55791E-06   128   0.986E-03
   9 F= -.14785956E+02 E0= -.14785956E+02  d E =-.956834E-03  mag=     0.0000
       N       E                     dE             d eps       ncg     rms          rms(c)
DAV:   1    -0.147748134440E+02   -0.45699E-04   -0.13753E-03   128   0.210E-01    0.899E-03
DAV:   2    -0.147748156034E+02   -0.21594E-05   -0.12733E-05   128   0.192E-02    0.587E-03
DAV:   3    -0.147748184754E+02   -0.28720E-05   -0.13278E-06   128   0.552E-03    0.159E-03
DAV:   4    -0.147748200624E+02   -0.15870E-05   -0.17632E-07   128   0.181E-03    0.544E-04
DAV:   5    -0.147748210427E+02   -0.98026E-06   -0.25904E-08   128   0.604E-04
  10 F= -.14786003E+02 E0= -.14786003E+02  d E =-.464721E-04  mag=     0.0000
       N       E                     dE             d eps       ncg     rms          rms(c)
DAV:   1    -0.147748973788E+02   -0.77316E-04   -0.12451E-02   128   0.632E-01    0.272E-02
DAV:   2    -0.147748968881E+02    0.49073E-06   -0.11829E-04   128   0.587E-02    0.175E-02
DAV:   3    -0.147748986252E+02   -0.17370E-05   -0.10885E-05   128   0.159E-02    0.483E-03
DAV:   4    -0.147748996985E+02   -0.10733E-05   -0.11929E-06   128   0.510E-03    0.160E-03
DAV:   5    -0.147749000131E+02   -0.31464E-06   -0.17392E-07   128   0.165E-03
  11 F= -.14786082E+02 E0= -.14786082E+02  d E =-.125475E-03  mag=     0.0000
       N       E                     dE             d eps       ncg     rms          rms(c)
DAV:   1    -0.147748769009E+02    0.22798E-04   -0.49640E-02    64   0.126E+00    0.540E-02
DAV:   2    -0.147748845704E+02   -0.76694E-05   -0.58600E-04   128   0.140E-01    0.352E-02
DAV:   3    -0.147748837187E+02    0.85166E-06   -0.36861E-05   128   0.291E-02    0.102E-02
DAV:   4    -0.147748876610E+02   -0.39423E-05   -0.32533E-06   128   0.102E-02    0.314E-03
DAV:   5    -0.147748887047E+02   -0.10437E-05   -0.66533E-07   128   0.356E-03
  12 F= -.14786071E+02 E0= -.14786071E+02  d E =-.114232E-03  mag=     0.0000
       N       E                     dE             d eps       ncg     rms          rms(c)
DAV:   1    -0.147749164545E+02   -0.28793E-04   -0.13546E-02    64   0.659E-01    0.283E-02
DAV:   2    -0.147749198005E+02   -0.33460E-05   -0.15848E-04   128   0.725E-02    0.184E-02
DAV:   3    -0.147749215267E+02   -0.17262E-05   -0.10169E-05   128   0.152E-02    0.528E-03
DAV:   4    -0.147749231264E+02   -0.15998E-05   -0.89239E-07   128   0.533E-03    0.164E-03
DAV:   5    -0.147749237053E+02   -0.57890E-06   -0.18788E-07   128   0.198E-03
  13 F= -.14786106E+02 E0= -.14786106E+02  d E =-.149199E-03  mag=     0.0000
