 Entering Gaussian System, Link 0=g16
 Initial command:
 /home/chesagar/softwares/G16_AVX2//g16/l1.exe "/home/chesagar/scratch/Gau-203781.inp" -scrdir="/home/chesagar/scratch/"
 Entering Link 1 = /home/chesagar/softwares/G16_AVX2//g16/l1.exe PID=    203783.
  
 Copyright (c) 1988-2019, Gaussian, Inc.  All Rights Reserved.
  
 This is part of the Gaussian(R) 16 program.  It is based on
 the Gaussian(R) 09 system (copyright 2009, Gaussian, Inc.),
 the Gaussian(R) 03 system (copyright 2003, Gaussian, Inc.),
 the Gaussian(R) 98 system (copyright 1998, Gaussian, Inc.),
 the Gaussian(R) 94 system (copyright 1995, Gaussian, Inc.),
 the Gaussian 92(TM) system (copyright 1992, Gaussian, Inc.),
 the Gaussian 90(TM) system (copyright 1990, Gaussian, Inc.),
 the Gaussian 88(TM) system (copyright 1988, Gaussian, Inc.),
 the Gaussian 86(TM) system (copyright 1986, Carnegie Mellon
 University), and the Gaussian 82(TM) system (copyright 1983,
 Carnegie Mellon University). Gaussian is a federally registered
 trademark of Gaussian, Inc.
  
 This software contains proprietary and confidential information,
 including trade secrets, belonging to Gaussian, Inc.
  
 This software is provided under written license and may be
 used, copied, transmitted, or stored only in accord with that
 written license.
  
 The following legend is applicable only to US Government
 contracts under FAR:
  
                    RESTRICTED RIGHTS LEGEND
  
 Use, reproduction and disclosure by the US Government is
 subject to restrictions as set forth in subparagraphs (a)
 and (c) of the Commercial Computer Software - Restricted
 Rights clause in FAR 52.227-19.
  
 Gaussian, Inc.
 340 Quinnipiac St., Bldg. 40, Wallingford CT 06492
  
  
 ---------------------------------------------------------------
 Warning -- This program may not be used in any manner that
 competes with the business of Gaussian, Inc. or will provide
 assistance to any competitor of Gaussian, Inc.  The licensee
 of this program is prohibited from giving any competitor of
 Gaussian, Inc. access to this program.  By using this program,
 the user acknowledges that Gaussian, Inc. is engaged in the
 business of creating and licensing software in the field of
 computational chemistry and represents and warrants to the
 licensee that it is not a competitor of Gaussian, Inc. and that
 it will not use this program in any manner prohibited above.
 ---------------------------------------------------------------
  

 Cite this work as:
 Gaussian 16, Revision C.01,
 M. J. Frisch, G. W. Trucks, H. B. Schlegel, G. E. Scuseria, 
 M. A. Robb, J. R. Cheeseman, G. Scalmani, V. Barone, 
 G. A. Petersson, H. Nakatsuji, X. Li, M. Caricato, A. V. Marenich, 
 J. Bloino, B. G. Janesko, R. Gomperts, B. Mennucci, H. P. Hratchian, 
 J. V. Ortiz, A. F. Izmaylov, J. L. Sonnenberg, D. Williams-Young, 
 F. Ding, F. Lipparini, F. Egidi, J. Goings, B. Peng, A. Petrone, 
 T. Henderson, D. Ranasinghe, V. G. Zakrzewski, J. Gao, N. Rega, 
 G. Zheng, W. Liang, M. Hada, M. Ehara, K. Toyota, R. Fukuda, 
 J. Hasegawa, M. Ishida, T. Nakajima, Y. Honda, O. Kitao, H. Nakai, 
 T. Vreven, K. Throssell, J. A. Montgomery, Jr., J. E. Peralta, 
 F. Ogliaro, M. J. Bearpark, J. J. Heyd, E. N. Brothers, K. N. Kudin, 
 V. N. Staroverov, T. A. Keith, R. Kobayashi, J. Normand, 
 K. Raghavachari, A. P. Rendell, J. C. Burant, S. S. Iyengar, 
 J. Tomasi, M. Cossi, J. M. Millam, M. Klene, C. Adamo, R. Cammi, 
 J. W. Ochterski, R. L. Martin, K. Morokuma, O. Farkas, 
 J. B. Foresman, and D. J. Fox, Gaussian, Inc., Wallingford CT, 2019.
 
 ******************************************
 Gaussian 16:  ES64L-G16RevC.01  3-Jul-2019
                20-Dec-2022 
 ******************************************
 %nprocshared=48
 Will use up to   48 processors via shared memory.
 %mem=100GB
 ---------------------------------------
 # opt freq b3lyp/gen nosymm pseudo=read
 ---------------------------------------
 1/18=20,19=15,26=3,38=1/1,3;
 2/9=110,12=2,15=1,17=6,18=5,40=1/2;
 3/5=7,11=2,16=1,17=8,25=1,30=1,71=1,74=-5/1,2,3;
 4//1;
 5/5=2,38=5/2;
 6/7=2,8=2,9=2,10=2,28=1/1;
 7/30=1/1,2,3,16;
 1/18=20,19=15,26=3/3(2);
 2/9=110,15=1/2;
 99//99;
 2/9=110,15=1/2;
 3/5=7,6=1,11=2,16=1,17=8,25=1,30=1,71=1,74=-5,82=7/1,2,3;
 4/5=5,16=3,69=1/1;
 5/5=2,38=5/2;
 7/30=1/1,2,3,16;
 1/18=20,19=15,26=3/3(-5);
 2/9=110,15=1/2;
 6/7=2,8=2,9=2,10=2,19=2,28=1/1;
 99/9=1/99;
 -------------------
 Title Card Required
 -------------------
 Symbolic Z-matrix:
 Charge =  0 Multiplicity = 1
 42                    0.42483   1.40481   12.29038 
 16                    1.2408    3.60714   12.54251 
 16                   -1.82203   1.81075   12.95978 
 16                   -0.07139   0.87032   10.01137 
 16                    2.43816  -0.05581   11.85002 
 42                   -1.84021   2.31996   10.70005 
 16                   -2.56962   1.87181   8.32755 
 16                   -1.18083   4.45376   10.46912 
 42                    0.93472   3.08988   10.17948 
 16                    0.3947    3.31098   7.73691 
 16                    2.97306   1.98602   9.38853 
 42                    3.09439   2.38394   11.74219 
 42                   -1.84454   4.24327   7.86451 
 16                    4.05785   2.15798   14.12698 
 16                    4.67249   4.13939   11.66948 
 16                   -3.88841   5.45391   8.64451 
 16                   -0.60699   6.4044    7.91517 
 42                   -4.36083   3.15208   9.03324 
 16                   -6.16218   2.46456   8.17053 
 16                   -4.30516   2.87252   11.21736 
 42                    2.72694   0.38484   14.09978 
 16                    3.53181  -1.24694   15.18997 
 16                    0.68717   0.92773   14.7951 
 42                    1.60597   5.44236   7.20007 
 16                    1.00406   4.88116   4.89132 
 16                    1.75905   5.50764   9.84741 
 42                    3.60154   4.28426   9.60281 
 16                    3.64329   4.03215   7.11147 
 16                    5.17103   6.29899   9.38613 
 42                    4.42696   6.21342   7.30441 
 16                    5.9551    6.59266   5.89334 
 16                    2.59242   7.74374   7.18844 
 42                    1.82656   7.11388   4.99766 
 16                    3.29132   7.39332   3.49032 
 16                   -0.04784   8.20602   4.74367 
 42                   -1.04704   5.87069   5.73552 
 16                   -2.33892   3.92976   5.61149 
 16                   -2.87699   7.23368   4.95702 
 42                   -4.35174   6.08255   6.30641 
 16                   -5.63359   4.81399   5.10298 
 16                   -5.90527   7.56483   6.54623 
 

 GradGradGradGradGradGradGradGradGradGradGradGradGradGradGradGradGradGrad
 Berny optimization.
 Initialization pass.
                           ----------------------------
                           !    Initial Parameters    !
                           ! (Angstroms and Degrees)  !
 --------------------------                            --------------------------
 ! Name  Definition              Value          Derivative Info.                !
 --------------------------------------------------------------------------------
 ! R1    R(1,2)                  2.3621         estimate D2E/DX2                !
 ! R2    R(1,3)                  2.3793         estimate D2E/DX2                !
 ! R3    R(1,4)                  2.3929         estimate D2E/DX2                !
 ! R4    R(1,5)                  2.526          estimate D2E/DX2                !
 ! R5    R(1,6)                  2.915          estimate D2E/DX2                !
 ! R6    R(1,9)                  2.7487         estimate D2E/DX2                !
 ! R7    R(1,12)                 2.8958         estimate D2E/DX2                !
 ! R8    R(1,21)                 3.1006         estimate D2E/DX2                !
 ! R9    R(1,23)                 2.5632         estimate D2E/DX2                !
 ! R10   R(2,9)                  2.4383         estimate D2E/DX2                !
 ! R11   R(2,12)                 2.3606         estimate D2E/DX2                !
 ! R12   R(3,6)                  2.3165         estimate D2E/DX2                !
 ! R13   R(4,6)                  2.3884         estimate D2E/DX2                !
 ! R14   R(4,9)                  2.4427         estimate D2E/DX2                !
 ! R15   R(5,12)                 2.5288         estimate D2E/DX2                !
 ! R16   R(5,21)                 2.3106         estimate D2E/DX2                !
 ! R17   R(6,7)                  2.5222         estimate D2E/DX2                !
 ! R18   R(6,8)                  2.2453         estimate D2E/DX2                !
 ! R19   R(6,9)                  2.9264         estimate D2E/DX2                !
 ! R20   R(6,20)                 2.5785         estimate D2E/DX2                !
 ! R21   R(7,13)                 2.5227         estimate D2E/DX2                !
 ! R22   R(7,18)                 2.312          estimate D2E/DX2                !
 ! R23   R(8,9)                  2.5337         estimate D2E/DX2                !
 ! R24   R(8,13)                 2.6961         estimate D2E/DX2                !
 ! R25   R(9,10)                 2.5113         estimate D2E/DX2                !
 ! R26   R(9,11)                 2.4493         estimate D2E/DX2                !
 ! R27   R(9,12)                 2.7576         estimate D2E/DX2                !
 ! R28   R(9,26)                 2.5759         estimate D2E/DX2                !
 ! R29   R(9,27)                 2.9784         estimate D2E/DX2                !
 ! R30   R(10,13)                2.4289         estimate D2E/DX2                !
 ! R31   R(10,24)                2.5096         estimate D2E/DX2                !
 ! R32   R(11,12)                2.3901         estimate D2E/DX2                !
 ! R33   R(11,27)                2.3922         estimate D2E/DX2                !
 ! R34   R(12,14)                2.582          estimate D2E/DX2                !
 ! R35   R(12,15)                2.3616         estimate D2E/DX2                !
 ! R36   R(12,21)                3.1128         estimate D2E/DX2                !
 ! R37   R(12,27)                2.9061         estimate D2E/DX2                !
 ! R38   R(13,16)                2.5003         estimate D2E/DX2                !
 ! R39   R(13,17)                2.4909         estimate D2E/DX2                !
 ! R40   R(13,18)                2.9813         estimate D2E/DX2                !
 ! R41   R(13,36)                2.7959         estimate D2E/DX2                !
 ! R42   R(13,37)                2.3278         estimate D2E/DX2                !
 ! R43   R(14,21)                2.2172         estimate D2E/DX2                !
 ! R44   R(15,27)                2.3322         estimate D2E/DX2                !
 ! R45   R(16,18)                2.3817         estimate D2E/DX2                !
 ! R46   R(16,39)                2.4651         estimate D2E/DX2                !
 ! R47   R(17,24)                2.5168         estimate D2E/DX2                !
 ! R48   R(17,36)                2.2868         estimate D2E/DX2                !
 ! R49   R(18,19)                2.1123         estimate D2E/DX2                !
 ! R50   R(18,20)                2.2026         estimate D2E/DX2                !
 ! R51   R(21,22)                2.1211         estimate D2E/DX2                !
 ! R52   R(21,23)                2.2224         estimate D2E/DX2                !
 ! R53   R(24,25)                2.451          estimate D2E/DX2                !
 ! R54   R(24,26)                2.6526         estimate D2E/DX2                !
 ! R55   R(24,28)                2.4793         estimate D2E/DX2                !
 ! R56   R(24,30)                2.9263         estimate D2E/DX2                !
 ! R57   R(24,32)                2.5039         estimate D2E/DX2                !
 ! R58   R(24,33)                2.7737         estimate D2E/DX2                !
 ! R59   R(24,36)                3.0605         estimate D2E/DX2                !
 ! R60   R(25,33)                2.3818         estimate D2E/DX2                !
 ! R61   R(25,36)                2.4288         estimate D2E/DX2                !
 ! R62   R(26,27)                2.2251         estimate D2E/DX2                !
 ! R63   R(27,28)                2.5044         estimate D2E/DX2                !
 ! R64   R(27,29)                2.5631         estimate D2E/DX2                !
 ! R65   R(27,30)                3.1122         estimate D2E/DX2                !
 ! R66   R(28,30)                2.3258         estimate D2E/DX2                !
 ! R67   R(29,30)                2.2124         estimate D2E/DX2                !
 ! R68   R(30,31)                2.1143         estimate D2E/DX2                !
 ! R69   R(30,32)                2.3918         estimate D2E/DX2                !
 ! R70   R(32,33)                2.4047         estimate D2E/DX2                !
 ! R71   R(33,34)                2.1203         estimate D2E/DX2                !
 ! R72   R(33,35)                2.1842         estimate D2E/DX2                !
 ! R73   R(35,36)                2.7269         estimate D2E/DX2                !
 ! R74   R(36,37)                2.3349         estimate D2E/DX2                !
 ! R75   R(36,38)                2.4109         estimate D2E/DX2                !
 ! R76   R(38,39)                2.3067         estimate D2E/DX2                !
 ! R77   R(39,40)                2.1681         estimate D2E/DX2                !
 ! R78   R(39,41)                2.1606         estimate D2E/DX2                !
 ! A1    A(2,1,3)               97.8805         estimate D2E/DX2                !
 ! A2    A(2,1,4)              112.4301         estimate D2E/DX2                !
 ! A3    A(2,1,5)              106.4032         estimate D2E/DX2                !
 ! A4    A(2,1,6)               91.9453         estimate D2E/DX2                !
 ! A5    A(2,1,21)              89.309          estimate D2E/DX2                !
 ! A6    A(2,1,23)              91.9414         estimate D2E/DX2                !
 ! A7    A(3,1,4)               96.3285         estimate D2E/DX2                !
 ! A8    A(3,1,5)              154.2041         estimate D2E/DX2                !
 ! A9    A(3,1,9)              106.6568         estimate D2E/DX2                !
 ! A10   A(3,1,12)             150.01           estimate D2E/DX2                !
 ! A11   A(3,1,21)             126.3752         estimate D2E/DX2                !
 ! A12   A(3,1,23)              81.5751         estimate D2E/DX2                !
 ! A13   A(4,1,5)               82.5357         estimate D2E/DX2                !
 ! A14   A(4,1,12)              94.9565         estimate D2E/DX2                !
 ! A15   A(4,1,21)             129.5149         estimate D2E/DX2                !
 ! A16   A(4,1,23)             155.5515         estimate D2E/DX2                !
 ! A17   A(5,1,6)              134.89           estimate D2E/DX2                !
 ! A18   A(5,1,9)               94.172          estimate D2E/DX2                !
 ! A19   A(5,1,23)              88.9201         estimate D2E/DX2                !
 ! A20   A(6,1,12)             120.4572         estimate D2E/DX2                !
 ! A21   A(6,1,23)             132.1508         estimate D2E/DX2                !
 ! A22   A(9,1,21)             120.803          estimate D2E/DX2                !
 ! A23   A(9,1,23)             147.7318         estimate D2E/DX2                !
 ! A24   A(12,1,23)             98.8339         estimate D2E/DX2                !
 ! A25   A(1,6,7)              133.0094         estimate D2E/DX2                !
 ! A26   A(1,6,8)               97.2544         estimate D2E/DX2                !
 ! A27   A(1,6,20)             134.4774         estimate D2E/DX2                !
 ! A28   A(3,6,4)               98.1664         estimate D2E/DX2                !
 ! A29   A(3,6,7)              151.7403         estimate D2E/DX2                !
 ! A30   A(3,6,8)              107.8748         estimate D2E/DX2                !
 ! A31   A(3,6,9)              102.9395         estimate D2E/DX2                !
 ! A32   A(3,6,20)              81.8885         estimate D2E/DX2                !
 ! A33   A(4,6,7)               80.5088         estimate D2E/DX2                !
 ! A34   A(4,6,8)              109.2486         estimate D2E/DX2                !
 ! A35   A(4,6,20)             153.6208         estimate D2E/DX2                !
 ! A36   A(7,6,8)               99.0351         estimate D2E/DX2                !
 ! A37   A(7,6,9)               98.838          estimate D2E/DX2                !
 ! A38   A(7,6,20)              87.1532         estimate D2E/DX2                !
 ! A39   A(8,6,20)              95.6079         estimate D2E/DX2                !
 ! A40   A(9,6,20)             152.3456         estimate D2E/DX2                !
 ! A41   A(6,7,13)              85.5556         estimate D2E/DX2                !
 ! A42   A(6,7,18)              80.7091         estimate D2E/DX2                !
 ! A43   A(6,8,13)              87.2985         estimate D2E/DX2                !
 ! A44   A(9,8,13)              93.0431         estimate D2E/DX2                !
 ! A45   A(1,9,8)               95.0098         estimate D2E/DX2                !
 ! A46   A(1,9,10)             139.555          estimate D2E/DX2                !
 ! A47   A(1,9,11)              97.2436         estimate D2E/DX2                !
 ! A48   A(1,9,26)             137.2032         estimate D2E/DX2                !
 ! A49   A(1,9,27)             124.0986         estimate D2E/DX2                !
 ! A50   A(2,9,4)              108.1293         estimate D2E/DX2                !
 ! A51   A(2,9,6)               90.1404         estimate D2E/DX2                !
 ! A52   A(2,9,8)               83.0983         estimate D2E/DX2                !
 ! A53   A(2,9,10)             161.9773         estimate D2E/DX2                !
 ! A54   A(2,9,11)             107.7045         estimate D2E/DX2                !
 ! A55   A(2,9,26)              83.4338         estimate D2E/DX2                !
 ! A56   A(2,9,27)              89.4369         estimate D2E/DX2                !
 ! A57   A(4,9,8)               98.8057         estimate D2E/DX2                !
 ! A58   A(4,9,10)              85.6696         estimate D2E/DX2                !
 ! A59   A(4,9,11)              84.8961         estimate D2E/DX2                !
 ! A60   A(4,9,12)              97.4093         estimate D2E/DX2                !
 ! A61   A(4,9,27)             136.0406         estimate D2E/DX2                !
 ! A62   A(6,9,10)              89.5575         estimate D2E/DX2                !
 ! A63   A(6,9,11)             136.7199         estimate D2E/DX2                !
 ! A64   A(6,9,12)             125.0618         estimate D2E/DX2                !
 ! A65   A(6,9,26)             124.9821         estimate D2E/DX2                !
 ! A66   A(8,9,10)              83.3529         estimate D2E/DX2                !
 ! A67   A(8,9,12)             136.6299         estimate D2E/DX2                !
 ! A68   A(8,9,26)              77.0966         estimate D2E/DX2                !
 ! A69   A(8,9,27)             123.6336         estimate D2E/DX2                !
 ! A70   A(10,9,11)             84.5221         estimate D2E/DX2                !
 ! A71   A(10,9,12)            137.9119         estimate D2E/DX2                !
 ! A72   A(10,9,26)             81.998          estimate D2E/DX2                !
 ! A73   A(10,9,27)             88.2186         estimate D2E/DX2                !
 ! A74   A(11,9,26)             96.607          estimate D2E/DX2                !
 ! A75   A(12,9,26)             93.5952         estimate D2E/DX2                !
 ! A76   A(9,10,13)            100.4245         estimate D2E/DX2                !
 ! A77   A(9,10,24)            100.314          estimate D2E/DX2                !
 ! A78   A(13,10,24)            97.4822         estimate D2E/DX2                !
 ! A79   A(1,12,11)             94.7801         estimate D2E/DX2                !
 ! A80   A(1,12,14)             98.0221         estimate D2E/DX2                !
 ! A81   A(1,12,15)            150.8297         estimate D2E/DX2                !
 ! A82   A(1,12,27)            121.422          estimate D2E/DX2                !
 ! A83   A(2,12,5)             106.362          estimate D2E/DX2                !
 ! A84   A(2,12,11)            112.3501         estimate D2E/DX2                !
 ! A85   A(2,12,14)             91.4443         estimate D2E/DX2                !
 ! A86   A(2,12,15)             98.6253         estimate D2E/DX2                !
 ! A87   A(2,12,21)             89.0438         estimate D2E/DX2                !
 ! A88   A(2,12,27)             92.7386         estimate D2E/DX2                !
 ! A89   A(5,12,9)              93.8943         estimate D2E/DX2                !
 ! A90   A(5,12,11)             82.4263         estimate D2E/DX2                !
 ! A91   A(5,12,14)             88.4537         estimate D2E/DX2                !
 ! A92   A(5,12,15)            153.11           estimate D2E/DX2                !
 ! A93   A(5,12,27)            135.0377         estimate D2E/DX2                !
 ! A94   A(9,12,14)            146.9343         estimate D2E/DX2                !
 ! A95   A(9,12,15)            108.3967         estimate D2E/DX2                !
 ! A96   A(9,12,21)            120.0763         estimate D2E/DX2                !
 ! A97   A(11,12,14)           156.0513         estimate D2E/DX2                !
 ! A98   A(11,12,15)            97.3166         estimate D2E/DX2                !
 ! A99   A(11,12,21)           129.2654         estimate D2E/DX2                !
 ! A100  A(14,12,15)            81.0332         estimate D2E/DX2                !
 ! A101  A(14,12,27)           132.2261         estimate D2E/DX2                !
 ! A102  A(15,12,21)           125.4201         estimate D2E/DX2                !
 ! A103  A(7,13,8)              88.099          estimate D2E/DX2                !
 ! A104  A(7,13,10)             85.055          estimate D2E/DX2                !
 ! A105  A(7,13,16)             99.3787         estimate D2E/DX2                !
 ! A106  A(7,13,17)            162.6814         estimate D2E/DX2                !
 ! A107  A(7,13,36)            140.258          estimate D2E/DX2                !
 ! A108  A(7,13,37)             89.4274         estimate D2E/DX2                !
 ! A109  A(8,13,10)             81.5911         estimate D2E/DX2                !
 ! A110  A(8,13,16)             82.0712         estimate D2E/DX2                !
 ! A111  A(8,13,17)             77.8954         estimate D2E/DX2                !
 ! A112  A(8,13,18)             81.8154         estimate D2E/DX2                !
 ! A113  A(8,13,36)            128.3138         estimate D2E/DX2                !
 ! A114  A(10,13,16)           162.9122         estimate D2E/DX2                !
 ! A115  A(10,13,17)            82.8799         estimate D2E/DX2                !
 ! A116  A(10,13,18)           131.1638         estimate D2E/DX2                !
 ! A117  A(10,13,36)            85.4373         estimate D2E/DX2                !
 ! A118  A(10,13,37)            95.3508         estimate D2E/DX2                !
 ! A119  A(16,13,17)            88.8364         estimate D2E/DX2                !
 ! A120  A(16,13,36)           100.8872         estimate D2E/DX2                !
 ! A121  A(16,13,37)           101.1595         estimate D2E/DX2                !
 ! A122  A(17,13,18)           136.7951         estimate D2E/DX2                !
 ! A123  A(17,13,37)           104.0074         estimate D2E/DX2                !
 ! A124  A(18,13,36)           138.7897         estimate D2E/DX2                !
 ! A125  A(18,13,37)            98.6778         estimate D2E/DX2                !
 ! A126  A(13,16,39)            88.9247         estimate D2E/DX2                !
 ! A127  A(18,16,39)           111.3454         estimate D2E/DX2                !
 ! A128  A(13,17,24)            95.7065         estimate D2E/DX2                !
 ! A129  A(7,18,16)            109.3707         estimate D2E/DX2                !
 ! A130  A(7,18,19)            110.842          estimate D2E/DX2                !
 ! A131  A(7,18,20)            102.2863         estimate D2E/DX2                !
 ! A132  A(13,18,19)           132.7492         estimate D2E/DX2                !
 ! A133  A(13,18,20)           114.4466         estimate D2E/DX2                !
 ! A134  A(16,18,19)           114.6485         estimate D2E/DX2                !
 ! A135  A(16,18,20)           106.2298         estimate D2E/DX2                !
 ! A136  A(19,18,20)           112.6579         estimate D2E/DX2                !
 ! A137  A(6,20,18)             81.5135         estimate D2E/DX2                !
 ! A138  A(1,21,14)            100.9387         estimate D2E/DX2                !
 ! A139  A(1,21,22)            146.5885         estimate D2E/DX2                !
 ! A140  A(5,21,14)            103.8557         estimate D2E/DX2                !
 ! A141  A(5,21,22)            113.6503         estimate D2E/DX2                !
 ! A142  A(5,21,23)            103.6805         estimate D2E/DX2                !
 ! A143  A(12,21,22)           146.9871         estimate D2E/DX2                !
 ! A144  A(12,21,23)           100.861          estimate D2E/DX2                !
 ! A145  A(14,21,22)           112.4048         estimate D2E/DX2                !
 ! A146  A(14,21,23)           110.594          estimate D2E/DX2                !
 ! A147  A(22,21,23)           112.0492         estimate D2E/DX2                !
 ! A148  A(10,24,17)            80.7624         estimate D2E/DX2                !
 ! A149  A(10,24,25)            83.599          estimate D2E/DX2                !
 ! A150  A(10,24,26)            80.5181         estimate D2E/DX2                !
 ! A151  A(10,24,28)            85.4798         estimate D2E/DX2                !
 ! A152  A(10,24,30)           132.9557         estimate D2E/DX2                !
 ! A153  A(10,24,33)           136.059          estimate D2E/DX2                !
 ! A154  A(10,24,36)            78.629          estimate D2E/DX2                !
 ! A155  A(17,24,25)            98.0034         estimate D2E/DX2                !
 ! A156  A(17,24,26)            75.9813         estimate D2E/DX2                !
 ! A157  A(17,24,28)           161.8226         estimate D2E/DX2                !
 ! A158  A(17,24,30)           137.4582         estimate D2E/DX2                !
 ! A159  A(17,24,32)            89.7933         estimate D2E/DX2                !
 ! A160  A(17,24,33)            93.7375         estimate D2E/DX2                !
 ! A161  A(25,24,26)           163.7196         estimate D2E/DX2                !
 ! A162  A(25,24,28)            92.1721         estimate D2E/DX2                !
 ! A163  A(25,24,30)           109.3081         estimate D2E/DX2                !
 ! A164  A(25,24,32)           107.6265         estimate D2E/DX2                !
 ! A165  A(26,24,28)            90.1284         estimate D2E/DX2                !
 ! A166  A(26,24,30)            84.3932         estimate D2E/DX2                !
 ! A167  A(26,24,32)            87.6665         estimate D2E/DX2                !
 ! A168  A(26,24,33)           140.6291         estimate D2E/DX2                !
 ! A169  A(26,24,36)           121.6123         estimate D2E/DX2                !
 ! A170  A(28,24,32)           101.4718         estimate D2E/DX2                !
 ! A171  A(28,24,33)           104.4208         estimate D2E/DX2                !
 ! A172  A(28,24,36)           140.7871         estimate D2E/DX2                !
 ! A173  A(30,24,33)            78.0447         estimate D2E/DX2                !
 ! A174  A(30,24,36)           144.6692         estimate D2E/DX2                !
 ! A175  A(32,24,36)           102.1602         estimate D2E/DX2                !
 ! A176  A(33,24,36)            66.7108         estimate D2E/DX2                !
 ! A177  A(33,25,36)            83.9262         estimate D2E/DX2                !
 ! A178  A(9,26,24)             94.9965         estimate D2E/DX2                !
 ! A179  A(24,26,27)            85.6728         estimate D2E/DX2                !
 ! A180  A(9,27,15)            102.3968         estimate D2E/DX2                !
 ! A181  A(9,27,28)             99.6231         estimate D2E/DX2                !
 ! A182  A(9,27,29)            151.6263         estimate D2E/DX2                !
 ! A183  A(9,27,30)            128.9795         estimate D2E/DX2                !
 ! A184  A(11,27,15)            98.0675         estimate D2E/DX2                !
 ! A185  A(11,27,26)           108.6935         estimate D2E/DX2                !
 ! A186  A(11,27,28)            79.5466         estimate D2E/DX2                !
 ! A187  A(11,27,29)           155.2948         estimate D2E/DX2                !
 ! A188  A(11,27,30)           126.8016         estimate D2E/DX2                !
 ! A189  A(12,27,26)            97.7062         estimate D2E/DX2                !
 ! A190  A(12,27,28)           132.0217         estimate D2E/DX2                !
 ! A191  A(12,27,29)           133.0868         estimate D2E/DX2                !
 ! A192  A(15,27,26)           108.4805         estimate D2E/DX2                !
 ! A193  A(15,27,28)           150.1833         estimate D2E/DX2                !
 ! A194  A(15,27,29)            80.9408         estimate D2E/DX2                !
 ! A195  A(15,27,30)           124.8307         estimate D2E/DX2                !
 ! A196  A(26,27,28)           100.2824         estimate D2E/DX2                !
 ! A197  A(26,27,29)            94.8279         estimate D2E/DX2                !
 ! A198  A(26,27,30)            87.7068         estimate D2E/DX2                !
 ! A199  A(28,27,29)            89.1305         estimate D2E/DX2                !
 ! A200  A(24,28,27)            83.8862         estimate D2E/DX2                !
 ! A201  A(24,30,27)            66.8788         estimate D2E/DX2                !
 ! A202  A(24,30,29)           111.5898         estimate D2E/DX2                !
 ! A203  A(24,30,31)           136.0728         estimate D2E/DX2                !
 ! A204  A(27,30,31)           142.7281         estimate D2E/DX2                !
 ! A205  A(27,30,32)           103.2373         estimate D2E/DX2                !
 ! A206  A(28,30,29)           103.1589         estimate D2E/DX2                !
 ! A207  A(28,30,31)           110.879          estimate D2E/DX2                !
 ! A208  A(28,30,32)           109.7301         estimate D2E/DX2                !
 ! A209  A(29,30,31)           112.2078         estimate D2E/DX2                !
 ! A210  A(29,30,32)           106.1912         estimate D2E/DX2                !
 ! A211  A(31,30,32)           114.0321         estimate D2E/DX2                !
 ! A212  A(30,32,33)            96.942          estimate D2E/DX2                !
 ! A213  A(24,33,34)           134.3353         estimate D2E/DX2                !
 ! A214  A(24,33,35)           108.9907         estimate D2E/DX2                !
 ! A215  A(25,33,32)           113.3401         estimate D2E/DX2                !
 ! A216  A(25,33,34)           109.2912         estimate D2E/DX2                !
 ! A217  A(25,33,35)            99.624          estimate D2E/DX2                !
 ! A218  A(32,33,34)           113.149          estimate D2E/DX2                !
 ! A219  A(32,33,35)           104.3757         estimate D2E/DX2                !
 ! A220  A(34,33,35)           116.3772         estimate D2E/DX2                !
 ! A221  A(33,35,36)            81.0216         estimate D2E/DX2                !
 ! A222  A(13,36,24)            78.5456         estimate D2E/DX2                !
 ! A223  A(13,36,25)           105.5698         estimate D2E/DX2                !
 ! A224  A(13,36,35)           151.6396         estimate D2E/DX2                !
 ! A225  A(13,36,38)           111.0048         estimate D2E/DX2                !
 ! A226  A(17,36,25)           105.3003         estimate D2E/DX2                !
 ! A227  A(17,36,35)            94.376          estimate D2E/DX2                !
 ! A228  A(17,36,37)           110.5558         estimate D2E/DX2                !
 ! A229  A(17,36,38)           108.7777         estimate D2E/DX2                !
 ! A230  A(24,36,35)            88.6407         estimate D2E/DX2                !
 ! A231  A(24,36,37)           112.874          estimate D2E/DX2                !
 ! A232  A(24,36,38)           153.0752         estimate D2E/DX2                !
 ! A233  A(25,36,35)            85.0115         estimate D2E/DX2                !
 ! A234  A(25,36,37)            96.3221         estimate D2E/DX2                !
 ! A235  A(25,36,38)           139.3847         estimate D2E/DX2                !
 ! A236  A(35,36,37)           153.5521         estimate D2E/DX2                !
 ! A237  A(35,36,38)            71.1261         estimate D2E/DX2                !
 ! A238  A(37,36,38)            91.8816         estimate D2E/DX2                !
 ! A239  A(36,38,39)            90.8165         estimate D2E/DX2                !
 ! A240  A(16,39,38)           124.191          estimate D2E/DX2                !
 ! A241  A(16,39,40)           119.2347         estimate D2E/DX2                !
 ! A242  A(16,39,41)           101.8192         estimate D2E/DX2                !
 ! A243  A(38,39,40)           110.1987         estimate D2E/DX2                !
 ! A244  A(38,39,41)           100.5019         estimate D2E/DX2                !
 ! A245  A(40,39,41)            92.1726         estimate D2E/DX2                !
 ! A246  L(6,1,21,2,-1)        181.2542         estimate D2E/DX2                !
 ! A247  L(4,9,26,2,-1)        191.563          estimate D2E/DX2                !
 ! A248  L(6,9,27,2,-1)        179.5773         estimate D2E/DX2                !
 ! A249  L(8,9,11,1,-1)        192.2534         estimate D2E/DX2                !
 ! A250  L(21,12,27,2,-1)      181.7824         estimate D2E/DX2                !
 ! A251  L(8,13,37,7,-1)       177.5265         estimate D2E/DX2                !
 ! A252  L(10,24,32,17,-1)     170.5557         estimate D2E/DX2                !
 ! A253  L(12,27,30,26,-1)     185.413          estimate D2E/DX2                !
 ! A254  L(6,1,21,2,-2)        177.2011         estimate D2E/DX2                !
 ! A255  L(4,9,26,2,-2)        185.2247         estimate D2E/DX2                !
 ! A256  L(6,9,27,2,-2)        188.5077         estimate D2E/DX2                !
 ! A257  L(8,9,11,1,-2)        175.6694         estimate D2E/DX2                !
 ! A258  L(21,12,27,2,-2)      176.9615         estimate D2E/DX2                !
 ! A259  L(8,13,37,7,-2)       182.858          estimate D2E/DX2                !
 ! A260  L(10,24,32,17,-2)     170.0949         estimate D2E/DX2                !
 ! A261  L(12,27,30,26,-2)     178.7473         estimate D2E/DX2                !
 ! D1    D(2,1,6,7)            117.974          estimate D2E/DX2                !
 ! D2    D(2,1,6,8)              8.3872         estimate D2E/DX2                !
 ! D3    D(2,1,6,20)           -96.864          estimate D2E/DX2                !
 ! D4    D(5,1,6,7)              2.337          estimate D2E/DX2                !
 ! D5    D(5,1,6,8)           -107.2497         estimate D2E/DX2                !
 ! D6    D(5,1,6,20)           147.4991         estimate D2E/DX2                !
 ! D7    D(12,1,6,7)            71.773          estimate D2E/DX2                !
 ! D8    D(12,1,6,8)           -37.8137         estimate D2E/DX2                !
 ! D9    D(12,1,6,20)         -143.0649         estimate D2E/DX2                !
 ! D10   D(23,1,6,7)          -147.6406         estimate D2E/DX2                !
 ! D11   D(23,1,6,8)           102.7727         estimate D2E/DX2                !
 ! D12   D(23,1,6,20)           -2.4785         estimate D2E/DX2                !
 ! D13   D(3,1,9,8)             10.7903         estimate D2E/DX2                !
 ! D14   D(3,1,9,10)           -74.8349         estimate D2E/DX2                !
 ! D15   D(3,1,9,11)          -164.8791         estimate D2E/DX2                !
 ! D16   D(3,1,9,26)            87.1829         estimate D2E/DX2                !
 ! D17   D(3,1,9,27)           147.7431         estimate D2E/DX2                !
 ! D18   D(5,1,9,8)            175.3926         estimate D2E/DX2                !
 ! D19   D(5,1,9,10)            89.7674         estimate D2E/DX2                !
 ! D20   D(5,1,9,11)            -0.2768         estimate D2E/DX2                !
 ! D21   D(5,1,9,26)          -108.2148         estimate D2E/DX2                !
 ! D22   D(5,1,9,27)           -47.6547         estimate D2E/DX2                !
 ! D23   D(21,1,9,8)          -143.2484         estimate D2E/DX2                !
 ! D24   D(21,1,9,10)          131.1264         estimate D2E/DX2                !
 ! D25   D(21,1,9,11)           41.0822         estimate D2E/DX2                !
 ! D26   D(21,1,9,26)          -66.8559         estimate D2E/DX2                !
 ! D27   D(21,1,9,27)           -6.2957         estimate D2E/DX2                !
 ! D28   D(23,1,9,8)           -90.0112         estimate D2E/DX2                !
 ! D29   D(23,1,9,10)         -175.6364         estimate D2E/DX2                !
 ! D30   D(23,1,9,11)           94.3194         estimate D2E/DX2                !
 ! D31   D(23,1,9,26)          -13.6186         estimate D2E/DX2                !
 ! D32   D(23,1,9,27)           46.9415         estimate D2E/DX2                !
 ! D33   D(3,1,12,11)         -111.8438         estimate D2E/DX2                !
 ! D34   D(3,1,12,14)           88.4464         estimate D2E/DX2                !
 ! D35   D(3,1,12,15)            2.4869         estimate D2E/DX2                !
 ! D36   D(3,1,12,27)          -63.3697         estimate D2E/DX2                !
 ! D37   D(4,1,12,11)           -0.028          estimate D2E/DX2                !
 ! D38   D(4,1,12,14)         -159.7378         estimate D2E/DX2                !
 ! D39   D(4,1,12,15)          114.3026         estimate D2E/DX2                !
 ! D40   D(4,1,12,27)           48.4461         estimate D2E/DX2                !
 ! D41   D(6,1,12,11)          -48.7252         estimate D2E/DX2                !
 ! D42   D(6,1,12,14)          151.5651         estimate D2E/DX2                !
 ! D43   D(6,1,12,15)           65.6055         estimate D2E/DX2                !
 ! D44   D(6,1,12,27)           -0.2511         estimate D2E/DX2                !
 ! D45   D(23,1,12,11)         159.723          estimate D2E/DX2                !
 ! D46   D(23,1,12,14)           0.0133         estimate D2E/DX2                !
 ! D47   D(23,1,12,15)         -85.9463         estimate D2E/DX2                !
 ! D48   D(23,1,12,27)        -151.8029         estimate D2E/DX2                !
 ! D49   D(2,1,21,14)          -14.1466         estimate D2E/DX2                !
 ! D50   D(2,1,21,22)          169.5033         estimate D2E/DX2                !
 ! D51   D(3,1,21,14)         -113.4357         estimate D2E/DX2                !
 ! D52   D(3,1,21,22)           70.2141         estimate D2E/DX2                !
 ! D53   D(4,1,21,14)          104.8449         estimate D2E/DX2                !
 ! D54   D(4,1,21,22)          -71.5053         estimate D2E/DX2                !
 ! D55   D(9,1,21,14)           35.1724         estimate D2E/DX2                !
 ! D56   D(9,1,21,22)         -141.1778         estimate D2E/DX2                !
 ! D57   D(1,2,9,12)           -81.4717         estimate D2E/DX2                !
 ! D58   D(1,4,6,9)             72.1487         estimate D2E/DX2                !
 ! D59   D(1,5,12,21)           82.5247         estimate D2E/DX2                !
 ! D60   D(1,6,7,13)          -107.9587         estimate D2E/DX2                !
 ! D61   D(1,6,7,18)           175.5201         estimate D2E/DX2                !
 ! D62   D(3,6,7,13)           163.1177         estimate D2E/DX2                !
 ! D63   D(3,6,7,18)            86.5964         estimate D2E/DX2                !
 ! D64   D(4,6,7,13)          -107.2741         estimate D2E/DX2                !
 ! D65   D(4,6,7,18)           176.2046         estimate D2E/DX2                !
 ! D66   D(8,6,7,13)             0.8971         estimate D2E/DX2                !
 ! D67   D(8,6,7,18)           -75.6242         estimate D2E/DX2                !
 ! D68   D(9,6,7,13)           -56.7184         estimate D2E/DX2                !
 ! D69   D(9,6,7,18)          -133.2396         estimate D2E/DX2                !
 ! D70   D(20,6,7,13)           96.1275         estimate D2E/DX2                !
 ! D71   D(20,6,7,18)           19.6063         estimate D2E/DX2                !
 ! D72   D(1,6,8,13)           134.9287         estimate D2E/DX2                !
 ! D73   D(3,6,8,13)          -172.1003         estimate D2E/DX2                !
 ! D74   D(4,6,8,13)            82.1934         estimate D2E/DX2                !
 ! D75   D(7,6,8,13)            -0.8378         estimate D2E/DX2                !
 ! D76   D(20,6,8,13)          -88.8367         estimate D2E/DX2                !
 ! D77   D(3,6,9,2)            -22.5169         estimate D2E/DX2                !
 ! D78   D(3,6,9,10)           175.5035         estimate D2E/DX2                !
 ! D79   D(3,6,9,11)            93.9827         estimate D2E/DX2                !
 ! D80   D(3,6,9,12)            21.181          estimate D2E/DX2                !
 ! D81   D(3,6,9,26)          -104.5933         estimate D2E/DX2                !
 ! D82   D(7,6,9,2)            175.6148         estimate D2E/DX2                !
 ! D83   D(7,6,9,10)            13.6353         estimate D2E/DX2                !
 ! D84   D(7,6,9,11)           -67.8856         estimate D2E/DX2                !
 ! D85   D(7,6,9,12)          -140.6873         estimate D2E/DX2                !
 ! D86   D(7,6,9,26)            93.5384         estimate D2E/DX2                !
 ! D87   D(20,6,9,2)            74.753          estimate D2E/DX2                !
 ! D88   D(20,6,9,10)          -87.2266         estimate D2E/DX2                !
 ! D89   D(20,6,9,11)         -168.7475         estimate D2E/DX2                !
 ! D90   D(20,6,9,12)          118.4508         estimate D2E/DX2                !
 ! D91   D(20,6,9,26)           -7.3234         estimate D2E/DX2                !
 ! D92   D(1,6,20,18)         -175.8521         estimate D2E/DX2                !
 ! D93   D(3,6,20,18)         -174.4591         estimate D2E/DX2                !
 ! D94   D(4,6,20,18)          -82.4212         estimate D2E/DX2                !
 ! D95   D(7,6,20,18)          -20.5759         estimate D2E/DX2                !
 ! D96   D(8,6,20,18)           78.2312         estimate D2E/DX2                !
 ! D97   D(9,6,20,18)           83.1063         estimate D2E/DX2                !
 ! D98   D(6,7,13,8)            -0.7382         estimate D2E/DX2                !
 ! D99   D(6,7,13,10)           80.9829         estimate D2E/DX2                !
 ! D100  D(6,7,13,16)          -82.3795         estimate D2E/DX2                !
 ! D101  D(6,7,13,17)           35.0427         estimate D2E/DX2                !
 ! D102  D(6,7,13,36)          157.7476         estimate D2E/DX2                !
 ! D103  D(6,7,13,37)          176.4038         estimate D2E/DX2                !
 ! D104  D(6,7,18,16)           88.6458         estimate D2E/DX2                !
 ! D105  D(6,7,18,19)         -143.9903         estimate D2E/DX2                !
 ! D106  D(6,7,18,20)          -23.674          estimate D2E/DX2                !
 ! D107  D(13,8,9,1)          -130.3253         estimate D2E/DX2                !
 ! D108  D(13,8,9,2)           177.1294         estimate D2E/DX2                !
 ! D109  D(13,8,9,4)           -75.5078         estimate D2E/DX2                !
 ! D110  D(13,8,9,10)            9.0421         estimate D2E/DX2                !
 ! D111  D(13,8,9,12)          173.7592         estimate D2E/DX2                !
 ! D112  D(13,8,9,26)           92.3184         estimate D2E/DX2                !
 ! D113  D(13,8,9,27)           92.4319         estimate D2E/DX2                !
 ! D114  D(6,8,13,7)             0.8277         estimate D2E/DX2                !
 ! D115  D(6,8,13,10)          -84.4528         estimate D2E/DX2                !
 ! D116  D(6,8,13,16)          100.5716         estimate D2E/DX2                !
 ! D117  D(6,8,13,17)         -168.9184         estimate D2E/DX2                !
 ! D118  D(6,8,13,18)           49.453          estimate D2E/DX2                !
 ! D119  D(6,8,13,36)         -161.7855         estimate D2E/DX2                !
 ! D120  D(9,8,13,7)            75.8905         estimate D2E/DX2                !
 ! D121  D(9,8,13,10)           -9.39           estimate D2E/DX2                !
 ! D122  D(9,8,13,16)          175.6345         estimate D2E/DX2                !
 ! D123  D(9,8,13,17)          -93.8556         estimate D2E/DX2                !
 ! D124  D(9,8,13,18)          124.5159         estimate D2E/DX2                !
 ! D125  D(9,8,13,36)          -86.7227         estimate D2E/DX2                !
 ! D126  D(1,9,10,13)           79.7297         estimate D2E/DX2                !
 ! D127  D(1,9,10,24)          179.4046         estimate D2E/DX2                !
 ! D128  D(2,9,10,13)          -51.6812         estimate D2E/DX2                !
 ! D129  D(2,9,10,24)           47.9938         estimate D2E/DX2                !
 ! D130  D(4,9,10,13)           89.2012         estimate D2E/DX2                !
 ! D131  D(4,9,10,24)         -171.1239         estimate D2E/DX2                !
 ! D132  D(6,9,10,13)           37.4128         estimate D2E/DX2                !
 ! D133  D(6,9,10,24)          137.0878         estimate D2E/DX2                !
 ! D134  D(8,9,10,13)          -10.2023         estimate D2E/DX2                !
 ! D135  D(8,9,10,24)           89.4727         estimate D2E/DX2                !
 ! D136  D(11,9,10,13)         174.4767         estimate D2E/DX2                !
 ! D137  D(11,9,10,24)         -85.8484         estimate D2E/DX2                !
 ! D138  D(12,9,10,13)        -174.5351         estimate D2E/DX2                !
 ! D139  D(12,9,10,24)         -74.8602         estimate D2E/DX2                !
 ! D140  D(26,9,10,13)         -88.042          estimate D2E/DX2                !
 ! D141  D(26,9,10,24)          11.6329         estimate D2E/DX2                !
 ! D142  D(27,9,10,13)        -134.3635         estimate D2E/DX2                !
 ! D143  D(27,9,10,24)         -34.6885         estimate D2E/DX2                !
 ! D144  D(4,9,12,5)             0.0087         estimate D2E/DX2                !
 ! D145  D(4,9,12,14)          -93.1434         estimate D2E/DX2                !
 ! D146  D(4,9,12,15)          164.7457         estimate D2E/DX2                !
 ! D147  D(4,9,12,21)          -41.3023         estimate D2E/DX2                !
 ! D148  D(6,9,12,5)            47.9941         estimate D2E/DX2                !
 ! D149  D(6,9,12,14)          -45.158          estimate D2E/DX2                !
 ! D150  D(6,9,12,15)         -147.269          estimate D2E/DX2                !
 ! D151  D(6,9,12,21)            6.6831         estimate D2E/DX2                !
 ! D152  D(8,9,12,5)           111.2602         estimate D2E/DX2                !
 ! D153  D(8,9,12,14)           18.1081         estimate D2E/DX2                !
 ! D154  D(8,9,12,15)          -84.0029         estimate D2E/DX2                !
 ! D155  D(8,9,12,21)           69.9492         estimate D2E/DX2                !
 ! D156  D(10,9,12,5)          -91.7322         estimate D2E/DX2                !
 ! D157  D(10,9,12,14)         175.1157         estimate D2E/DX2                !
 ! D158  D(10,9,12,15)          73.0048         estimate D2E/DX2                !
 ! D159  D(10,9,12,21)        -133.0432         estimate D2E/DX2                !
 ! D160  D(26,9,12,5)         -173.7693         estimate D2E/DX2                !
 ! D161  D(26,9,12,14)          93.0786         estimate D2E/DX2                !
 ! D162  D(26,9,12,15)          -9.0324         estimate D2E/DX2                !
 ! D163  D(26,9,12,21)         144.9197         estimate D2E/DX2                !
 ! D164  D(1,9,26,24)         -179.1918         estimate D2E/DX2                !
 ! D165  D(2,9,26,24)          179.7803         estimate D2E/DX2                !
 ! D166  D(6,9,26,24)          -94.6665         estimate D2E/DX2                !
 ! D167  D(8,9,26,24)          -95.8278         estimate D2E/DX2                !
 ! D168  D(10,9,26,24)         -10.8599         estimate D2E/DX2                !
 ! D169  D(11,9,26,24)          72.633          estimate D2E/DX2                !
 ! D170  D(12,9,26,24)         127.0471         estimate D2E/DX2                !
 ! D171  D(1,9,27,15)          -21.248          estimate D2E/DX2                !
 ! D172  D(1,9,27,28)          138.5166         estimate D2E/DX2                !
 ! D173  D(1,9,27,29)         -115.1316         estimate D2E/DX2                !
 ! D174  D(1,9,27,30)         -179.7029         estimate D2E/DX2                !
 ! D175  D(2,9,27,15)           22.6722         estimate D2E/DX2                !
 ! D176  D(2,9,27,28)         -177.5632         estimate D2E/DX2                !
 ! D177  D(2,9,27,29)          -71.2114         estimate D2E/DX2                !
 ! D178  D(2,9,27,30)         -135.7827         estimate D2E/DX2                !
 ! D179  D(4,9,27,15)          -93.3101         estimate D2E/DX2                !
 ! D180  D(4,9,27,28)           66.4545         estimate D2E/DX2                !
 ! D181  D(4,9,27,29)          172.8063         estimate D2E/DX2                !
 ! D182  D(4,9,27,30)          108.235          estimate D2E/DX2                !
 ! D183  D(8,9,27,15)          103.9947         estimate D2E/DX2                !
 ! D184  D(8,9,27,28)          -96.2407         estimate D2E/DX2                !
 ! D185  D(8,9,27,29)           10.1111         estimate D2E/DX2                !
 ! D186  D(8,9,27,30)          -54.4602         estimate D2E/DX2                !
 ! D187  D(10,9,27,15)        -175.1996         estimate D2E/DX2                !
 ! D188  D(10,9,27,28)         -15.435          estimate D2E/DX2                !
 ! D189  D(10,9,27,29)          90.9168         estimate D2E/DX2                !
 ! D190  D(10,9,27,30)          26.3455         estimate D2E/DX2                !
 ! D191  D(9,10,13,7)          -79.183          estimate D2E/DX2                !
 ! D192  D(9,10,13,8)            9.6212         estimate D2E/DX2                !
 ! D193  D(9,10,13,16)          26.7913         estimate D2E/DX2                !
 ! D194  D(9,10,13,17)          88.3673         estimate D2E/DX2                !
 ! D195  D(9,10,13,18)         -61.6913         estimate D2E/DX2                !
 ! D196  D(9,10,13,36)         139.4499         estimate D2E/DX2                !
 ! D197  D(9,10,13,37)        -168.1415         estimate D2E/DX2                !
 ! D198  D(24,10,13,7)         178.8251         estimate D2E/DX2                !
 ! D199  D(24,10,13,8)         -92.3707         estimate D2E/DX2                !
 ! D200  D(24,10,13,16)        -75.2006         estimate D2E/DX2                !
 ! D201  D(24,10,13,17)        -13.6246         estimate D2E/DX2                !
 ! D202  D(24,10,13,18)       -163.6832         estimate D2E/DX2                !
 ! D203  D(24,10,13,36)         37.458          estimate D2E/DX2                !
 ! D204  D(24,10,13,37)         89.8666         estimate D2E/DX2                !
 ! D205  D(9,10,24,17)         -88.5315         estimate D2E/DX2                !
 ! D206  D(9,10,24,25)         172.2505         estimate D2E/DX2                !
 ! D207  D(9,10,24,26)         -11.3379         estimate D2E/DX2                !
 ! D208  D(9,10,24,28)          79.5493         estimate D2E/DX2                !
 ! D209  D(9,10,24,30)          61.7533         estimate D2E/DX2                !
 ! D210  D(9,10,24,33)        -174.3111         estimate D2E/DX2                !
 ! D211  D(9,10,24,36)        -136.4836         estimate D2E/DX2                !
 ! D212  D(13,10,24,17)         13.5552         estimate D2E/DX2                !
 ! D213  D(13,10,24,25)        -85.6629         estimate D2E/DX2                !
 ! D214  D(13,10,24,26)         90.7488         estimate D2E/DX2                !
 ! D215  D(13,10,24,28)       -178.364          estimate D2E/DX2                !
 ! D216  D(13,10,24,30)        163.84           estimate D2E/DX2                !
 ! D217  D(13,10,24,33)        -72.2244         estimate D2E/DX2                !
 ! D218  D(13,10,24,36)        -34.3969         estimate D2E/DX2                !
 ! D219  D(9,11,12,27)         -80.3484         estimate D2E/DX2                !
 ! D220  D(2,12,21,22)        -169.9099         estimate D2E/DX2                !
 ! D221  D(2,12,21,23)          14.6071         estimate D2E/DX2                !
 ! D222  D(9,12,21,22)         140.7564         estimate D2E/DX2                !
 ! D223  D(9,12,21,23)         -34.7266         estimate D2E/DX2                !
 ! D224  D(11,12,21,22)         71.5625         estimate D2E/DX2                !
 ! D225  D(11,12,21,23)       -103.9205         estimate D2E/DX2                !
 ! D226  D(15,12,21,22)        -69.9949         estimate D2E/DX2                !
 ! D227  D(15,12,21,23)        114.5221         estimate D2E/DX2                !
 ! D228  D(1,12,27,26)          37.8036         estimate D2E/DX2                !
 ! D229  D(1,12,27,28)         -73.567          estimate D2E/DX2                !
 ! D230  D(1,12,27,29)         141.8589         estimate D2E/DX2                !
 ! D231  D(2,12,27,26)          -8.5856         estimate D2E/DX2                !
 ! D232  D(2,12,27,28)        -119.9562         estimate D2E/DX2                !
 ! D233  D(2,12,27,29)          95.4697         estimate D2E/DX2                !
 ! D234  D(5,12,27,26)         107.9662         estimate D2E/DX2                !
 ! D235  D(5,12,27,28)          -3.4044         estimate D2E/DX2                !
 ! D236  D(5,12,27,29)        -147.9785         estimate D2E/DX2                !
 ! D237  D(14,12,27,26)       -103.0299         estimate D2E/DX2                !
 ! D238  D(14,12,27,28)        145.5995         estimate D2E/DX2                !
 ! D239  D(14,12,27,29)          1.0254         estimate D2E/DX2                !
 ! D240  D(7,13,16,39)        -111.5827         estimate D2E/DX2                !
 ! D241  D(8,13,16,39)         161.682          estimate D2E/DX2                !
 ! D242  D(10,13,16,39)        144.5332         estimate D2E/DX2                !
 ! D243  D(17,13,16,39)         83.742          estimate D2E/DX2                !
 ! D244  D(36,13,16,39)         34.0464         estimate D2E/DX2                !
 ! D245  D(37,13,16,39)        -20.3073         estimate D2E/DX2                !
 ! D246  D(7,13,17,24)          59.7144         estimate D2E/DX2                !
 ! D247  D(8,13,17,24)          96.4165         estimate D2E/DX2                !
 ! D248  D(10,13,17,24)         13.5357         estimate D2E/DX2                !
 ! D249  D(16,13,17,24)        178.5565         estimate D2E/DX2                !
 ! D250  D(18,13,17,24)        160.2475         estimate D2E/DX2                !
 ! D251  D(37,13,17,24)        -80.2311         estimate D2E/DX2                !
 ! D252  D(8,13,18,19)         178.3484         estimate D2E/DX2                !
 ! D253  D(8,13,18,20)          -6.4641         estimate D2E/DX2                !
 ! D254  D(10,13,18,19)       -110.4355         estimate D2E/DX2                !
 ! D255  D(10,13,18,20)         64.752          estimate D2E/DX2                !
 ! D256  D(17,13,18,19)        115.9027         estimate D2E/DX2                !
 ! D257  D(17,13,18,20)        -68.9098         estimate D2E/DX2                !
 ! D258  D(36,13,18,19)         36.4916         estimate D2E/DX2                !
 ! D259  D(36,13,18,20)       -148.3209         estimate D2E/DX2                !
 ! D260  D(37,13,18,19)         -5.4398         estimate D2E/DX2                !
 ! D261  D(37,13,18,20)        169.7478         estimate D2E/DX2                !
 ! D262  D(7,13,36,24)        -106.9287         estimate D2E/DX2                !
 ! D263  D(7,13,36,25)         -62.6594         estimate D2E/DX2                !
 ! D264  D(7,13,36,35)        -171.6945         estimate D2E/DX2                !
 ! D265  D(7,13,36,38)          99.347          estimate D2E/DX2                !
 ! D266  D(8,13,36,24)          45.2226         estimate D2E/DX2                !
 ! D267  D(8,13,36,25)          89.4919         estimate D2E/DX2                !
 ! D268  D(8,13,36,35)         -19.5433         estimate D2E/DX2                !
 ! D269  D(8,13,36,38)        -108.5017         estimate D2E/DX2                !
 ! D270  D(10,13,36,24)        -30.2985         estimate D2E/DX2                !
 ! D271  D(10,13,36,25)         13.9708         estimate D2E/DX2                !
 ! D272  D(10,13,36,35)        -95.0643         estimate D2E/DX2                !
 ! D273  D(10,13,36,38)        175.9772         estimate D2E/DX2                !
 ! D274  D(16,13,36,24)        133.6723         estimate D2E/DX2                !
 ! D275  D(16,13,36,25)        177.9416         estimate D2E/DX2                !
 ! D276  D(16,13,36,35)         68.9065         estimate D2E/DX2                !
 ! D277  D(16,13,36,38)        -20.052          estimate D2E/DX2                !
 ! D278  D(18,13,36,24)        174.0403         estimate D2E/DX2                !
 ! D279  D(18,13,36,25)       -141.6904         estimate D2E/DX2                !
 ! D280  D(18,13,36,35)        109.2744         estimate D2E/DX2                !
 ! D281  D(18,13,36,38)         20.316          estimate D2E/DX2                !
 ! D282  D(39,16,18,7)          81.9269         estimate D2E/DX2                !
 ! D283  D(39,16,18,19)        -43.2622         estimate D2E/DX2                !
 ! D284  D(39,16,18,20)       -168.3625         estimate D2E/DX2                !
 ! D285  D(13,16,39,38)        -56.7923         estimate D2E/DX2                !
 ! D286  D(13,16,39,40)         92.3649         estimate D2E/DX2                !
 ! D287  D(13,16,39,41)       -168.3409         estimate D2E/DX2                !
 ! D288  D(18,16,39,38)       -130.4691         estimate D2E/DX2                !
 ! D289  D(18,16,39,40)         18.6881         estimate D2E/DX2                !
 ! D290  D(18,16,39,41)        117.9823         estimate D2E/DX2                !
 ! D291  D(13,17,24,10)        -13.1636         estimate D2E/DX2                !
 ! D292  D(13,17,24,25)         68.9662         estimate D2E/DX2                !
 ! D293  D(13,17,24,26)        -95.6121         estimate D2E/DX2                !
 ! D294  D(13,17,24,28)        -54.4626         estimate D2E/DX2                !
 ! D295  D(13,17,24,30)       -160.7136         estimate D2E/DX2                !
 ! D296  D(13,17,24,32)        176.7415         estimate D2E/DX2                !
 ! D297  D(13,17,24,33)        122.9277         estimate D2E/DX2                !
 ! D298  D(7,18,20,6)           23.0728         estimate D2E/DX2                !
 ! D299  D(13,18,20,6)         -34.0542         estimate D2E/DX2                !
 ! D300  D(16,18,20,6)         -91.5687         estimate D2E/DX2                !
 ! D301  D(19,18,20,6)         142.1179         estimate D2E/DX2                !
 ! D302  D(10,24,26,9)          10.9111         estimate D2E/DX2                !
 ! D303  D(10,24,26,27)         86.7242         estimate D2E/DX2                !
 ! D304  D(17,24,26,9)          93.6698         estimate D2E/DX2                !
 ! D305  D(17,24,26,27)        169.4829         estimate D2E/DX2                !
 ! D306  D(25,24,26,9)          23.7297         estimate D2E/DX2                !
 ! D307  D(25,24,26,27)         99.5428         estimate D2E/DX2                !
 ! D308  D(28,24,26,9)         -74.4844         estimate D2E/DX2                !
 ! D309  D(28,24,26,27)          1.3287         estimate D2E/DX2                !
 ! D310  D(30,24,26,9)        -124.3718         estimate D2E/DX2                !
 ! D311  D(30,24,26,27)        -48.5587         estimate D2E/DX2                !
 ! D312  D(32,24,26,9)        -175.9605         estimate D2E/DX2                !
 ! D313  D(32,24,26,27)       -100.1474         estimate D2E/DX2                !
 ! D314  D(33,24,26,9)         172.2288         estimate D2E/DX2                !
 ! D315  D(33,24,26,27)       -111.9581         estimate D2E/DX2                !
 ! D316  D(36,24,26,9)          81.1852         estimate D2E/DX2                !
 ! D317  D(36,24,26,27)        156.9983         estimate D2E/DX2                !
 ! D318  D(10,24,28,27)        -81.6618         estimate D2E/DX2                !
 ! D319  D(17,24,28,27)        -40.8586         estimate D2E/DX2                !
 ! D320  D(25,24,28,27)       -165.0632         estimate D2E/DX2                !
 ! D321  D(26,24,28,27)         -1.1839         estimate D2E/DX2                !
 ! D322  D(32,24,28,27)         86.4611         estimate D2E/DX2                !
 ! D323  D(33,24,28,27)        141.8302         estimate D2E/DX2                !
 ! D324  D(36,24,28,27)       -147.4742         estimate D2E/DX2                !
 ! D325  D(10,24,30,27)        -35.9543         estimate D2E/DX2                !
 ! D326  D(10,24,30,29)        -67.8261         estimate D2E/DX2                !
 ! D327  D(10,24,30,31)        107.5576         estimate D2E/DX2                !
 ! D328  D(17,24,30,27)         97.6914         estimate D2E/DX2                !
 ! D329  D(17,24,30,29)         65.8196         estimate D2E/DX2                !
 ! D330  D(17,24,30,31)       -118.7967         estimate D2E/DX2                !
 ! D331  D(25,24,30,27)       -135.4398         estimate D2E/DX2                !
 ! D332  D(25,24,30,29)       -167.3116         estimate D2E/DX2                !
 ! D333  D(25,24,30,31)          8.0721         estimate D2E/DX2                !
 ! D334  D(26,24,30,27)         35.5295         estimate D2E/DX2                !
 ! D335  D(26,24,30,29)          3.6577         estimate D2E/DX2                !
 ! D336  D(26,24,30,31)        179.0414         estimate D2E/DX2                !
 ! D337  D(33,24,30,27)       -179.9048         estimate D2E/DX2                !
 ! D338  D(33,24,30,29)        148.2234         estimate D2E/DX2                !
 ! D339  D(33,24,30,31)        -36.3929         estimate D2E/DX2                !
 ! D340  D(36,24,30,27)        176.087          estimate D2E/DX2                !
 ! D341  D(36,24,30,29)        144.2152         estimate D2E/DX2                !
 ! D342  D(36,24,30,31)        -40.4011         estimate D2E/DX2                !
 ! D343  D(10,24,33,34)       -100.9427         estimate D2E/DX2                !
 ! D344  D(10,24,33,35)         72.3467         estimate D2E/DX2                !
 ! D345  D(17,24,33,34)        178.4992         estimate D2E/DX2                !
 ! D346  D(17,24,33,35)         -8.2115         estimate D2E/DX2                !
 ! D347  D(26,24,33,34)        106.1419         estimate D2E/DX2                !
 ! D348  D(26,24,33,35)        -80.5687         estimate D2E/DX2                !
 ! D349  D(28,24,33,34)         -2.3412         estimate D2E/DX2                !
 ! D350  D(28,24,33,35)        170.9482         estimate D2E/DX2                !
 ! D351  D(30,24,33,34)         40.6916         estimate D2E/DX2                !
 ! D352  D(30,24,33,35)       -146.0191         estimate D2E/DX2                !
 ! D353  D(36,24,33,34)       -141.8307         estimate D2E/DX2                !
 ! D354  D(36,24,33,35)         31.4586         estimate D2E/DX2                !
 ! D355  D(10,24,36,13)         29.7674         estimate D2E/DX2                !
 ! D356  D(10,24,36,35)       -175.6879         estimate D2E/DX2                !
 ! D357  D(10,24,36,37)        -11.5294         estimate D2E/DX2                !
 ! D358  D(10,24,36,38)        143.8911         estimate D2E/DX2                !
 ! D359  D(26,24,36,13)        -41.5034         estimate D2E/DX2                !
 ! D360  D(26,24,36,35)        113.0413         estimate D2E/DX2                !
 ! D361  D(26,24,36,37)        -82.8002         estimate D2E/DX2                !
 ! D362  D(26,24,36,38)         72.6203         estimate D2E/DX2                !
 ! D363  D(28,24,36,13)         97.828          estimate D2E/DX2                !
 ! D364  D(28,24,36,35)       -107.6273         estimate D2E/DX2                !
 ! D365  D(28,24,36,37)         56.5312         estimate D2E/DX2                !
 ! D366  D(28,24,36,38)       -148.0483         estimate D2E/DX2                !
 ! D367  D(30,24,36,13)       -173.5646         estimate D2E/DX2                !
 ! D368  D(30,24,36,35)        -19.02           estimate D2E/DX2                !
 ! D369  D(30,24,36,37)        145.1385         estimate D2E/DX2                !
 ! D370  D(30,24,36,38)        -59.441          estimate D2E/DX2                !
 ! D371  D(32,24,36,13)       -136.3058         estimate D2E/DX2                !
 ! D372  D(32,24,36,35)         18.2389         estimate D2E/DX2                !
 ! D373  D(32,24,36,37)       -177.6026         estimate D2E/DX2                !
 ! D374  D(32,24,36,38)        -22.1821         estimate D2E/DX2                !
 ! D375  D(33,24,36,13)       -177.8342         estimate D2E/DX2                !
 ! D376  D(33,24,36,35)        -23.2895         estimate D2E/DX2                !
 ! D377  D(33,24,36,37)        140.869          estimate D2E/DX2                !
 ! D378  D(33,24,36,38)        -63.7105         estimate D2E/DX2                !
 ! D379  D(36,25,33,32)         82.9223         estimate D2E/DX2                !
 ! D380  D(36,25,33,34)       -149.8729         estimate D2E/DX2                !
 ! D381  D(36,25,33,35)        -27.4082         estimate D2E/DX2                !
 ! D382  D(33,25,36,13)       -131.8065         estimate D2E/DX2                !
 ! D383  D(33,25,36,17)        -71.7813         estimate D2E/DX2                !
 ! D384  D(33,25,36,35)         21.4018         estimate D2E/DX2                !
 ! D385  D(33,25,36,37)        174.8555         estimate D2E/DX2                !
 ! D386  D(33,25,36,38)         74.4892         estimate D2E/DX2                !
 ! D387  D(24,26,27,11)        -83.6774         estimate D2E/DX2                !
 ! D388  D(24,26,27,12)       -136.6603         estimate D2E/DX2                !
 ! D389  D(24,26,27,15)        170.7002         estimate D2E/DX2                !
 ! D390  D(24,26,27,28)         -1.3369         estimate D2E/DX2                !
 ! D391  D(24,26,27,29)         88.6542         estimate D2E/DX2                !
 ! D392  D(24,26,27,30)         44.5924         estimate D2E/DX2                !
 ! D393  D(9,27,28,24)          59.5527         estimate D2E/DX2                !
 ! D394  D(11,27,28,24)        108.7577         estimate D2E/DX2                !
 ! D395  D(12,27,28,24)        111.7333         estimate D2E/DX2                !
 ! D396  D(15,27,28,24)       -163.2438         estimate D2E/DX2                !
 ! D397  D(26,27,28,24)          1.4344         estimate D2E/DX2                !
 ! D398  D(29,27,28,24)        -93.3148         estimate D2E/DX2                !
 ! D399  D(9,27,30,24)          -0.5537         estimate D2E/DX2                !
 ! D400  D(9,27,30,31)        -137.6156         estimate D2E/DX2                !
 ! D401  D(9,27,30,32)          41.7173         estimate D2E/DX2                !
 ! D402  D(11,27,30,24)         68.1258         estimate D2E/DX2                !
 ! D403  D(11,27,30,31)        -68.936          estimate D2E/DX2                !
 ! D404  D(11,27,30,32)        110.3968         estimate D2E/DX2                !
 ! D405  D(15,27,30,24)       -154.644          estimate D2E/DX2                !
 ! D406  D(15,27,30,31)         68.2942         estimate D2E/DX2                !
 ! D407  D(15,27,30,32)       -112.373          estimate D2E/DX2                !
 ! D408  D(26,27,30,24)        -43.629          estimate D2E/DX2                !
 ! D409  D(26,27,30,31)        179.3091         estimate D2E/DX2                !
 ! D410  D(26,27,30,32)         -1.3581         estimate D2E/DX2                !
 ! D411  D(27,30,32,33)       -114.343          estimate D2E/DX2                !
 ! D412  D(28,30,32,33)        -59.8484         estimate D2E/DX2                !
 ! D413  D(29,30,32,33)       -170.7016         estimate D2E/DX2                !
 ! D414  D(31,30,32,33)         65.2146         estimate D2E/DX2                !
 ! D415  D(30,32,33,25)         65.3167         estimate D2E/DX2                !
 ! D416  D(30,32,33,34)        -59.8394         estimate D2E/DX2                !
 ! D417  D(30,32,33,35)        172.6879         estimate D2E/DX2                !
 ! D418  D(24,33,35,36)        -33.0032         estimate D2E/DX2                !
 ! D419  D(25,33,35,36)         24.378          estimate D2E/DX2                !
 ! D420  D(32,33,35,36)        -92.899          estimate D2E/DX2                !
 ! D421  D(34,33,35,36)        141.6436         estimate D2E/DX2                !
 ! D422  D(33,35,36,13)         90.3077         estimate D2E/DX2                !
 ! D423  D(33,35,36,17)         81.3941         estimate D2E/DX2                !
 ! D424  D(33,35,36,24)         27.8331         estimate D2E/DX2                !
 ! D425  D(33,35,36,25)        -23.6152         estimate D2E/DX2                !
 ! D426  D(33,35,36,37)       -117.785          estimate D2E/DX2                !
 ! D427  D(33,35,36,38)       -170.2437         estimate D2E/DX2                !
 ! D428  D(13,36,38,39)         -8.4189         estimate D2E/DX2                !
 ! D429  D(17,36,38,39)        -70.0715         estimate D2E/DX2                !
 ! D430  D(24,36,38,39)       -115.0521         estimate D2E/DX2                !
 ! D431  D(25,36,38,39)        144.3795         estimate D2E/DX2                !
 ! D432  D(35,36,38,39)       -158.2915         estimate D2E/DX2                !
 ! D433  D(37,36,38,39)         42.4003         estimate D2E/DX2                !
 ! D434  D(36,38,39,16)         43.3818         estimate D2E/DX2                !
 ! D435  D(36,38,39,40)       -108.1483         estimate D2E/DX2                !
 ! D436  D(36,38,39,41)        155.5778         estimate D2E/DX2                !
 --------------------------------------------------------------------------------
 Trust Radius=3.00D-01 FncErr=1.00D-07 GrdErr=1.00D-06 EigMax=2.50D+02 EigMin=1.00D-04
 Number of steps in this run=    246 maximum allowed number of steps=    246.
 GradGradGradGradGradGradGradGradGradGradGradGradGradGradGradGradGradGrad

                          Input orientation:                          
 ---------------------------------------------------------------------
 Center     Atomic      Atomic             Coordinates (Angstroms)
 Number     Number       Type             X           Y           Z
 ---------------------------------------------------------------------
      1         42           0        0.424834    1.404814   12.290382
      2         16           0        1.240799    3.607141   12.542514
      3         16           0       -1.822033    1.810748   12.959779
      4         16           0       -0.071390    0.870317   10.011372
      5         16           0        2.438159   -0.055806   11.850023
      6         42           0       -1.840211    2.319957   10.700052
      7         16           0       -2.569620    1.871811    8.327553
      8         16           0       -1.180827    4.453763   10.469118
      9         42           0        0.934715    3.089880   10.179483
     10         16           0        0.394699    3.310975    7.736912
     11         16           0        2.973060    1.986023    9.388527
     12         42           0        3.094386    2.383937   11.742186
     13         42           0       -1.844543    4.243266    7.864510
     14         16           0        4.057849    2.157983   14.126985
     15         16           0        4.672493    4.139386   11.669477
     16         16           0       -3.888414    5.453912    8.644505
     17         16           0       -0.606987    6.404395    7.915173
     18         42           0       -4.360825    3.152080    9.033241
     19         16           0       -6.162177    2.464562    8.170535
     20         16           0       -4.305159    2.872520   11.217362
     21         42           0        2.726944    0.384839   14.099778
     22         16           0        3.531810   -1.246937   15.189972
     23         16           0        0.687170    0.927730   14.795102
     24         42           0        1.605971    5.442356    7.200073
     25         16           0        1.004060    4.881161    4.891318
     26         16           0        1.759052    5.507636    9.847406
     27         42           0        3.601536    4.284257    9.602808
     28         16           0        3.643285    4.032152    7.111472
     29         16           0        5.171034    6.298986    9.386134
     30         42           0        4.426958    6.213424    7.304409
     31         16           0        5.955101    6.592656    5.893338
     32         16           0        2.592416    7.743741    7.188435
     33         42           0        1.826563    7.113882    4.997660
     34         16           0        3.291324    7.393325    3.490316
     35         16           0       -0.047843    8.206016    4.743672
     36         42           0       -1.047041    5.870689    5.735520
     37         16           0       -2.338918    3.929758    5.611485
     38         16           0       -2.876993    7.233677    4.957020
     39         42           0       -4.351742    6.082552    6.306408
     40         16           0       -5.633585    4.813993    5.102976
     41         16           0       -5.905270    7.564830    6.546227
 ---------------------------------------------------------------------
                    Distance matrix (angstroms):
                    1          2          3          4          5
     1  Mo   0.000000
     2  S    2.362121   0.000000
     3  S    2.379346   3.575203   0.000000
     4  S    2.392867   3.952053   3.555596   0.000000
     5  S    2.526025   3.915405   4.781717   3.245948   0.000000
     6  Mo   2.914973   3.813677   2.316461   2.388402   5.027040
     7  S    4.988873   5.941091   4.692561   3.174805   6.418828
     8  S    3.897594   3.298486   3.687827   3.779083   5.944760
     9  Mo   2.748694   2.438270   4.118966   2.442738   3.866056
    10  S    4.936441   4.888498   5.868809   3.368563   5.694614
    11  S    3.905384   3.946693   5.981428   3.301729   3.242553
    12  Mo   2.895809   2.360622   5.097279   3.912659   2.528756
    13  Mo   5.726712   5.639833   5.646186   4.373771   7.260019
    14  S    4.139948   3.542087   6.004661   5.970508   3.564942
    15  S    5.089795   3.580782   7.018996   5.995044   4.756520
    16  S    6.949225   6.701781   6.013665   6.119423   8.980972
    17  S    6.723312   5.714125   6.930078   5.941964   8.154150
    18  Mo   6.046854   6.625728   4.864395   4.956050   8.028137
    19  S    7.841232   8.673162   6.496244   6.559572   9.687965
    20  S    5.067383   5.749204   3.213922   4.836117   7.378868
    21  Mo   3.100641   3.875168   4.901633   4.978095   2.310619
    22  S    5.009262   5.984968   6.556434   6.654601   3.710812
    23  S    2.563211   3.543995   3.231754   4.843840   3.564659
    24  Mo   6.603641   5.660657   7.623254   5.623209   7.248749
    25  S    8.195526   7.760153   9.083738   6.592300   8.651812
    26  S    4.957965   3.338274   6.014816   4.988199   5.951768
    27  Mo   5.060206   3.830592   6.841243   5.031133   5.023900
    28  S    6.639461   5.953889   8.307047   5.674983   6.373193
    29  S    7.410397   5.714500   9.045342   7.572607   7.343210
    30  Mo   7.999978   6.661987   9.508767   7.490766   7.995072
    31  S    9.920672   8.680408  11.544914   9.274803   9.594427
    32  S    8.420824   6.899601   9.380628   7.893592   9.087746
    33  Mo   9.367075   8.340574  10.238692   8.229316   9.936466
    34  S   11.023620  10.024078  12.123626   9.817416  11.229521
    35  S   10.170182   9.145063  10.561800   9.031152  11.177573
    36  Mo   8.067011   7.529477   8.323079   6.651205   9.200930
    37  S    7.656457   7.807536   7.665168   5.819009   8.810479
    38  S    9.932568   9.362035   9.724467   8.597106  11.353453
    39  Mo   8.972450   8.734597   8.301511   7.695165  10.701115
    40  S    9.999287  10.200999   9.234542   8.401366  11.592698
    41  S   10.536191  10.133364   9.534985   9.531941  12.482674
                    6          7          8          9         10
     6  Mo   0.000000
     7  S    2.522226   0.000000
     8  S    2.245272   3.630637   0.000000
     9  Mo   2.926429   4.146529   2.533690   0.000000
    10  S    3.841502   3.347721   3.354578   2.511305   0.000000
    11  S    4.999919   5.644467   4.950979   2.449278   3.336357
    12  Mo   5.043846   6.633472   4.917553   2.757639   4.918326
    13  Mo   3.426286   2.522686   2.696073   3.796535   2.428920
    14  S    6.823285   8.811280   6.789280   5.119099   7.455273
    15  S    6.831209   8.292078   5.983398   4.158429   5.869485
    16  S    4.271075   3.830290   3.414753   5.586356   4.874522
    17  S    5.095000   4.956441   3.264490   4.299995   3.256440
    18  Mo   3.134355   2.312034   3.724045   5.418531   4.931605
    19  S    5.009866   3.644513   5.835602   7.402214   6.625486
    20  S    2.578547   3.516321   3.580733   5.346094   5.864677
    21  Mo   6.013462   7.973911   6.708838   5.089012   7.381579
    22  S    7.857527   9.697775   8.774588   7.117435   9.282464
    23  S    5.009529   7.302545   5.885275   5.102951   7.455430
    24  Mo   5.820258   5.608526   4.407972   3.855076   2.509614
    25  S    6.956366   5.799576   6.005685   5.583743   3.306692
    26  S    4.882929   5.853766   3.184347   2.575917   3.337808
    27  Mo   5.888551   6.747543   4.863149   2.978427   3.835707
    28  S    6.773348   6.689254   5.892673   4.199633   3.385939
    29  S    8.168024   8.979877   6.702525   5.373468   5.870393
    30  Mo   8.122000   8.297501   6.675256   5.497121   4.987021
    31  S   10.105808  10.044035   8.742659   7.472935   6.714631
    32  S    7.835628   7.900871   5.985332   5.775185   4.977972
    33  Mo   8.303266   7.608805   6.786566   6.621123   4.900596
    34  S   10.200589   9.393436   8.794591   8.295674   6.564267
    35  S    8.563687   7.702319   6.938572   7.529164   5.754716
    36  Mo   6.154949   5.002790   4.942927   5.604379   3.554760
    37  S    5.360381   3.415464   5.021191   5.682312   3.517527
    38  S    7.629022   6.340708   6.402197   7.679472   5.815441
    39  Mo   6.306268   4.999132   5.480494   7.204403   5.679497
    40  S    7.206744   5.333124   6.982285   8.478564   6.748103
    41  S    7.828644   6.834482   6.883907   8.944894   7.694324
                   11         12         13         14         15
    11  S    0.000000
    12  Mo   2.390139   0.000000
    13  Mo   5.534173   6.548778   0.000000
    14  S    4.864085   2.581973   8.854673   0.000000
    15  S    3.567601   2.361633   7.547206   3.216068   0.000000
    16  S    7.723966   8.232853   2.500293  10.201168   9.174288
    17  S    5.874480   6.671602   2.490901   8.853209   6.862796
    18  Mo   7.434500   7.969228   2.981324   9.889819   9.461784
    19  S    9.228492   9.922054   4.679680  11.833098  11.508158
[...]
 .00009316,-0.00163836,-0.00124761,0.00245829,-0.04683385,-0.08103167,-
 0.00694349,0.05045871,0.11187368,-0.00000653,-0.00056030,-0.00003280,-
 0.00029809,0.00032560,-0.00027046,0.00007063,0.00058898,-0.00067962,-0
 .00000803,-0.00006552,0.00023674,0.00013672,0.00002043,-0.00009403,-0.
 00107542,-0.00417166,-0.00079994,0.00056308,0.00348099,-0.00132731,-0.
 00094217,0.00390735,-0.00966550,0.00207019,-0.00072659,0.00199183,-0.0
 0838057,0.00752655,-0.00142999,0.00027695,-0.00008988,0.00032275,-0.00
 029536,-0.00023519,-0.00063703,-0.02326422,-0.03573320,-0.09302579,0.0
 0005510,0.00006615,0.00000673,-0.00016842,-0.00002249,0.00015383,0.004
 54322,0.00038090,-0.00385487,-0.00104455,-0.00019203,-0.00230144,0.001
 69213,-0.00126885,-0.00157947,-0.00011066,0.00030886,-0.00021255,0.000
 32964,-0.00009705,0.00064160,-0.00011352,-0.00015000,0.00005600,-0.000
 06450,0.00009475,-0.00004989,-0.00006404,-0.00001368,-0.00001317,-0.00
 147161,-0.00348844,-0.00146794,0.00413507,0.00418918,0.00264754,-0.000
 73578,0.00000587,-0.00025252,0.00001805,-0.00082303,-0.00040596,0.0012
 4952,0.00055583,0.00084810,0.00006632,0.00011986,-0.00014982,0.0005474
 7,-0.00020646,-0.00069305,-0.00012062,0.00005727,0.00036868,0.00030741
 ,0.00006805,-0.00048867,0.00059922,0.00103845,-0.00068986,-0.00026904,
 -0.00015471,-0.00007765,0.00127476,0.00084144,0.00066149,-0.01477598,-
 0.01818797,-0.01334420,0.03240796,0.03913897,0.12819885,-0.00052570,0.
 00040458,0.00060344,-0.00027929,0.00002778,0.00016720,-0.00008372,0.00
 006407,-0.00037858,-0.00003035,0.00006294,-0.00022874,0.00025026,0.000
 21518,-0.00002558,0.00034345,0.00049671,0.00094843,-0.00022691,-0.0002
 3943,0.00013113,0.00001327,-0.00071770,0.00009273,0.00257272,0.0006332
 4,-0.00105923,0.00166300,-0.00110720,0.00004008,0.00019815,-0.00018222
 ,0.00046217,-0.00047274,-0.00111031,-0.00040862,-0.00214907,0.00156534
 ,-0.00021577,0.00002459,-0.00001756,-0.00002368,-0.00042459,0.00037907
 ,-0.00053290,0.00900709,-0.00591972,0.00827649,-0.00126724,0.00073553,
 -0.00028894,-0.00055183,0.00151458,-0.00264926,0.00098604,0.00060525,0
 .00084030,0.00017265,-0.00036190,0.00088798,-0.00027209,-0.00036564,0.
 00029499,-0.00007702,0.00019194,-0.00010919,0.00009821,-0.00002520,-0.
 00001768,-0.00449285,0.00153518,-0.00626073,-0.00255156,0.00068460,0.0
 0380821,-0.00064000,0.00000483,0.00000152,0.00145633,-0.00072697,0.000
 88081,-0.00083412,-0.00001194,0.00134123,-0.00008784,-0.00003213,-0.00
 053370,0.00043053,0.00085383,0.00040743,-0.00026949,-0.00011515,0.0002
 3089,0.00026855,0.00042381,-0.00001488,0.00134024,-0.00157210,0.002058
 46,-0.00015267,0.00038183,-0.00033120,-0.01730717,-0.00757130,0.003767
 59,-0.03242846,0.02344596,-0.02110643,0.00161624,0.00551700,-0.0002409
 2,0.10524598,0.00012334,-0.00004509,-0.00013819,0.00005533,-0.00005355
 ,0.00003097,0.00005211,-0.00002422,0.00009673,0.00004874,0.00001401,0.
 00001004,-0.00008097,-0.00005646,-0.00002422,-0.00034641,-0.00009106,-
 0.00027957,-0.00015958,0.00027911,0.00022261,0.00009343,0.00019822,0.0
 0000326,-0.00055100,-0.00005511,0.00019729,0.00000140,-0.00101158,-0.0
 0004310,0.00001441,0.00001712,-0.00016998,0.00011745,0.00020212,0.0001
 6763,0.00149413,-0.00189327,-0.00280584,0.00000981,0.00002394,-0.00002
 119,0.00010179,-0.00003035,0.00006125,-0.00289103,0.00090561,-0.000517
 11,0.00050457,0.00159893,0.00097084,0.00012071,-0.00114565,0.00035968,
 -0.00019048,0.00011123,-0.00008479,0.00002758,0.00016059,-0.00014125,0
 .00002679,0.00007489,-0.00004784,0.00001665,-0.00004174,0.00002476,-0.
 00000147,-0.00000203,0.00000559,0.00438528,0.00169554,0.00125014,0.001
 94958,0.00045148,0.00065883,0.00009074,-0.00007640,-0.00007957,-0.0005
 1531,0.00032414,-0.00039584,0.00051678,-0.00065545,-0.00057575,0.00003
 612,-0.00000242,0.00005668,-0.00033389,-0.00015254,0.00007909,-0.00001
 372,0.00002952,-0.00011701,-0.00007090,0.00010981,0.00000235,0.0006108
 2,-0.00003090,0.00066720,0.00017298,-0.00003273,-0.00006385,-0.0035359
 3,0.00108618,0.00020872,0.02442562,-0.03917726,0.01827159,0.00402597,-
 0.01061432,0.00527689,-0.00761850,0.07503885,0.00005060,-0.00008067,-0
 .00009721,0.00006681,0.00000462,-0.00001221,0.00007684,-0.00005440,0.0
 0013252,-0.00002756,-0.00001773,0.00003743,-0.00004395,-0.00004866,-0.
 00000273,0.00003430,-0.00006478,-0.00038344,-0.00008602,0.00009034,-0.
 00003591,0.00006648,0.00004040,0.00001125,-0.00053442,0.00006876,0.000
 21372,0.00009695,0.00040350,-0.00019416,-0.00003738,0.00006498,-0.0000
 9768,0.00011330,0.00016986,0.00008291,-0.00325866,0.00030953,0.0016593
 6,-0.00000077,0.00000206,0.00000198,0.00002514,-0.00005074,0.00004478,
 -0.00019610,0.00173690,-0.00249563,-0.00076739,0.00214111,0.00069760,0
 .00106054,-0.00062189,0.00054433,-0.00055794,-0.00001073,-0.00049605,0
 .00003132,0.00017690,-0.00016111,0.00001278,0.00007912,-0.00004682,0.0
 0002230,-0.00005069,0.00002853,-0.00000998,0.00000568,0.00000480,0.000
 24243,0.00019142,0.00114762,-0.00311856,-0.00122340,0.00275081,0.00006
 250,-0.00008790,-0.00005971,-0.00015096,0.00014509,-0.00008322,-0.0000
 6659,0.00018797,0.00000391,0.00003336,0.00000303,0.00006211,-0.0000003
 8,-0.00003311,-0.00008752,0.00006461,-0.00000576,-0.00002679,-0.000086
 13,-0.00030162,0.00010389,-0.00161710,0.00044078,-0.00083686,0.0000188
 8,-0.00008015,-0.00024528,0.00199455,0.00115684,0.00193008,-0.02185343
 ,0.02480810,-0.02789616,0.00028080,0.00225196,0.00065640,-0.01766393,-
 0.05378034,0.07489052,0.00024181,-0.00030376,-0.00008850,0.00004162,0.
 00006971,-0.00013108,0.00015790,-0.00010729,0.00013862,-0.00014796,0.0
 0002998,0.00021292,-0.00009444,-0.00011312,0.00003200,0.00002587,-0.00
 045784,-0.00063936,0.00045818,0.00023222,0.00078056,-0.00083415,0.0009
 0302,0.00002577,-0.00114331,0.00000062,-0.00014123,-0.00089661,-0.0000
 9962,0.00058152,-0.00010891,0.00003287,-0.00001354,0.00040760,0.000411
 23,0.00010521,0.00318451,-0.00562450,-0.00416310,-0.00001634,-0.000045
 42,0.00006938,0.00018896,-0.00019477,0.00029674,-0.01834923,0.01104502
 ,-0.01590323,-0.00121160,-0.00138849,-0.00241707,0.00234194,0.00013679
 ,0.00228795,-0.00221141,-0.00087677,-0.00143274,0.00007135,-0.00044416
 ,-0.00020746,0.00002480,0.00041364,-0.00025161,0.00012597,-0.00027896,
 0.00015358,-0.00004618,0.00000002,0.00003281,0.00224999,0.00172954,0.0
 0430241,-0.00195428,0.00110305,-0.00311270,0.00044244,-0.00006461,-0.0
 0005763,-0.00078348,0.00037690,-0.00039676,0.00003596,-0.00030900,-0.0
 0113092,0.00004242,0.00001605,0.00032384,-0.00062334,-0.00017928,0.000
 02521,0.00023878,0.00006598,-0.00027677,-0.00001492,-0.00006138,0.0000
 4900,0.00016300,0.00085567,0.00016211,0.00026154,0.00008772,-0.0001911
 6,0.00011532,-0.00057527,-0.00050803,-0.01771004,0.00021332,0.00266508
 ,0.00115219,0.00132974,0.00228686,-0.04215318,-0.02013265,0.03721628,0
 .29366156,0.00044023,-0.00023607,-0.00033458,0.00019078,-0.00003013,-0
 .00017652,0.00008949,0.00004204,0.00003383,0.00003291,-0.00015533,0.00
 024716,-0.00017529,-0.00010670,0.00003309,-0.00011782,-0.00068919,-0.0
 0052942,0.00023782,-0.00027082,-0.00022632,0.00027247,0.00069622,-0.00
 037851,-0.00215849,-0.00040309,0.00097701,-0.00149082,0.00139221,-0.00
 071214,-0.00009588,0.00009661,-0.00031821,0.00029266,0.00072033,0.0001
 8196,0.00231905,-0.00318599,0.00440978,-0.00002825,0.00002413,-0.00003
 401,0.00008932,-0.00017389,0.00016758,0.00023313,-0.01818212,0.0241488
 1,0.00002393,-0.00028121,-0.00069792,0.00217339,-0.00425415,0.00520632
 ,-0.00117266,-0.00092822,0.00046842,-0.00011007,0.00041538,-0.00112356
 ,0.00030670,-0.00011177,-0.00000144,-0.00007706,0.00014209,-0.00007958
 ,-0.00006451,0.00003291,-0.00005162,0.00158871,0.00106834,0.00229133,-
 0.00053848,-0.00103902,-0.00289739,0.00056448,-0.00004326,0.00011242,-
 0.00041883,0.00051153,0.00004760,0.00020191,-0.00014014,-0.00084938,0.
 00000088,-0.00001051,0.00018737,-0.00012180,-0.00019926,-0.00017012,-0
 .00012225,-0.00000295,0.00007571,0.00002375,-0.00032316,0.00006379,-0.
 00149469,0.00002900,0.00022898,0.00007611,0.00013146,0.00005002,-0.000
 57215,-0.00041059,-0.00050752,-0.00680273,0.01492045,-0.00319153,-0.00
 336866,-0.00574759,-0.00248159,-0.00413763,-0.03120558,0.02047645,-0.0
 1095519,0.32190785,-0.00040204,0.00036282,0.00036240,-0.00025311,-0.00
 003520,0.00009918,-0.00022279,0.00009688,-0.00030662,0.00004419,0.0001
 2381,-0.00026291,0.00017038,0.00014128,-0.00004063,0.00010614,0.000412
 23,0.00094497,-0.00118888,-0.00079796,0.00014550,0.00016033,-0.0007344
 5,0.00017176,0.00224209,0.00039085,-0.00040887,0.00107066,-0.00072477,
 -0.00015733,0.00015885,-0.00008923,0.00030822,-0.00045092,-0.00065908,
 -0.00030607,-0.00594681,0.00623699,0.00134305,0.00000585,-0.00001996,0
 .00001314,-0.00010736,0.00022139,-0.00024561,-0.00520480,0.01580142,-0
 .05820633,-0.00188866,-0.00046398,0.00036839,0.00251435,0.00535460,-0.
 00347187,-0.00130687,-0.00005147,-0.00140967,-0.00004245,0.00039786,0.
 00136449,-0.00024524,-0.00006032,0.00011354,0.00000705,0.00000250,-0.0
 0000372,0.00006674,-0.00002516,0.00001415,-0.00236337,0.00145129,-0.00
 356688,-0.00064780,-0.00098198,0.00064805,-0.00051466,-0.00012900,0.00
 006006,0.00074205,-0.00040003,0.00022719,-0.00044089,-0.00021633,0.000
 57643,-0.00008051,0.00009330,-0.00039349,0.00013682,0.00041975,0.00052
 041,-0.00003961,-0.00005124,0.00004354,0.00036742,0.00037517,-0.000160
 96,0.00150694,-0.00054779,0.00196310,-0.00003266,0.00003314,-0.0000866
 0,-0.00237148,-0.00080970,0.00122308,0.01772354,-0.01188394,0.00516115
 ,-0.00096245,-0.00032001,-0.00325039,0.02112521,0.03234468,-0.05778021
 ,0.03372371,0.07778458,0.22791775,-0.00008737,0.00010927,0.00003610,-0
 .00000503,-0.00002677,0.00001204,-0.00001549,-0.00002577,-0.00002814,0
 .00001342,0.00002513,-0.00006057,0.00002757,0.00002339,-0.00001409,0.0
 0000261,0.00017515,0.00023256,-0.00027059,-0.00011695,-0.00019450,-0.0
 0009170,-0.00014101,0.00024350,0.00009211,0.00003592,-0.00004483,-0.00
 022894,0.00002783,-0.00001879,0.00001587,-0.00002313,0.00002120,-0.000
 02926,-0.00007354,-0.00004117,0.00107330,0.00133032,-0.00141924,0.0000
 0957,0.00001170,-0.00002798,-0.00005669,0.00006399,-0.00007165,-0.0004
 3932,0.00123750,-0.00262813,-0.00039390,-0.00002942,-0.00004513,-0.002
 25521,-0.00142480,-0.00117160,0.00188900,0.00020825,0.00187251,-0.0000
 3038,0.00000704,0.00013725,-0.00001417,-0.00014167,0.00007181,-0.00004
 279,0.00009439,-0.00005409,0.00000119,0.00001057,-0.00001367,-0.000013
 29,-0.00001627,-0.00095717,-0.00017442,-0.00032546,0.00038891,-0.00006
 881,0.00001915,0.00003329,0.00021175,-0.00007117,0.00010207,-0.0001108
 1,-0.00006360,0.00007181,-0.00001426,0.00002194,-0.00011225,0.00005504
 ,0.00007712,0.00010336,-0.00007214,-0.00002692,0.00008865,0.00006555,0
 .00009813,-0.00001666,0.00036073,-0.00006852,0.00030395,-0.00014869,-0
 .00002742,0.00008487,-0.00066167,0.00004569,0.00013749,0.00335569,-0.0
 0139678,0.00025651,-0.00359861,0.00079255,0.00055922,-0.00873415,-0.00
 450454,0.00196662,-0.11815139,-0.08471273,-0.08261829,0.11406771,-0.00
 007983,0.00008851,0.00007741,-0.00001238,-0.00000497,0.00004599,-0.000
 04034,0.00000720,-0.00007618,0.00001266,0.00005079,-0.00012280,0.00002
 733,0.00004437,-0.00000796,0.00015510,-0.00003934,0.00038038,0.0002021
 2,0.00006255,-0.00028493,0.00002088,-0.00006498,0.00006265,0.00032926,
 0.00000626,-0.00025182,0.00029655,-0.00044541,0.00011379,-0.00001039,-
 0.00002169,0.00002132,-0.00006096,-0.00010495,-0.00002372,0.00041331,0
 .00159252,-0.00064423,0.00000345,0.00000775,-0.00001386,-0.00004860,0.
 00005480,-0.00008045,0.00161217,0.00520207,-0.00260307,-0.00018535,0.0
 0011362,0.00021863,-0.00173975,-0.00148889,-0.00110930,0.00066518,-0.0
 0003667,0.00198691,0.00004481,0.00000926,-0.00011689,-0.00000476,-0.00
 011171,0.00006067,-0.00003373,0.00007470,-0.00004078,0.00001103,-0.000
 00208,-0.00000857,-0.00006368,0.00006786,-0.00061141,-0.00025768,-0.00
 020964,0.00041708,-0.00006512,0.00004835,-0.00001913,0.00022858,-0.000
 07282,0.00017045,-0.00024177,-0.00005819,0.00010216,-0.00001273,-0.000
 00264,-0.00008281,0.00005178,0.00007916,0.00013093,-0.00004193,-0.0000
 1847,0.00003483,-0.00001710,0.00003981,0.00001528,0.00052024,-0.000336
 76,0.00023711,-0.00011185,-0.00007211,0.00009897,-0.00092177,0.0002199
 1,-0.00002782,0.00270588,-0.00310224,0.00081285,0.00044315,0.00033463,
 0.00000322,-0.00962650,-0.00226613,0.00518186,-0.08395064,-0.09653613,
 -0.07717885,0.09227924,0.11133149,-0.00001319,0.00007406,0.00001759,-0
 .00001610,-0.00001121,0.00002432,0.00000499,0.00000420,-0.00004567,-0.
 00004110,-0.00001418,-0.00007850,0.00000904,0.00000152,-0.00001251,0.0
 0003797,0.00005181,0.00022053,0.00010431,-0.00000830,-0.00014414,-0.00
 007239,-0.00001609,0.00003471,0.00006034,0.00002350,0.00003102,-0.0000
 4885,-0.00020313,0.00017629,0.00000049,-0.00003310,-0.00001841,0.00001
 821,-0.00001336,-0.00000732,0.00040316,0.00087113,-0.00094073,0.000013
 04,0.00002384,-0.00002827,-0.00004771,0.00002694,-0.00003844,-0.001967
 63,0.00001794,-0.00299761,0.00003642,0.00017254,0.00010565,-0.00256918
 ,-0.00076987,-0.00197216,0.00172158,0.00120265,0.00041383,0.00010901,-
 0.00003087,0.00025531,-0.00002501,-0.00010180,0.00003238,-0.00002896,0
 .00006039,-0.00003247,-0.00000580,0.00000893,-0.00000531,-0.00012561,-
 0.00027771,-0.00015890,0.00002032,0.00003454,0.00038064,-0.00003546,0.
 00000035,-0.00004564,0.00014843,-0.00002590,0.00002790,-0.00000048,0.0
 0004916,0.00014013,0.00000352,0.00000052,-0.00003151,0.00010216,-0.000
 02991,-0.00002744,-0.00003584,-0.00000321,0.00005276,-0.00005823,0.000
 00080,-0.00001490,0.00020319,-0.00022064,-0.00016590,-0.00009387,-0.00
 005863,0.00009168,-0.00030153,0.00021122,-0.00017612,0.00074326,0.0000
 2436,0.00076418,-0.00100217,0.00036956,-0.00046296,-0.00131783,0.00156
 388,0.00928839,-0.07914817,-0.07594401,-0.08522549,0.07972730,0.081827
 77,0.08382313,-0.00003949,0.00007423,0.00001937,-0.00001985,-0.0000269
 3,0.00002304,0.00004547,0.00002196,-0.00005428,0.00001359,0.00002469,-
 0.00001534,0.00001195,0.00001334,-0.00000941,-0.00009513,-0.00012246,0
 .00007630,0.00010114,-0.00000512,-0.00003396,-0.00005143,0.00004242,-0
 .00005378,0.00015117,-0.00001038,0.00007058,0.00006961,0.00000652,0.00
 007277,0.00001865,-0.00001094,0.00000556,-0.00002784,-0.00004237,-0.00
 003857,0.00011334,0.00013806,-0.00020795,0.00000524,0.00001837,-0.0000
 4088,-0.00009687,0.00005798,-0.00009411,-0.00099712,0.00193164,-0.0030
 5408,-0.00019610,0.00001091,0.00033857,-0.00018352,0.00001197,0.000578
 23,0.00015518,0.00016271,-0.00000924,0.00002226,0.00006482,-0.00018008
 ,0.00002255,-0.00018798,0.00010409,-0.00006300,0.00013494,-0.00007412,
 0.00000468,0.00000730,-0.00002564,-0.00066409,-0.00052112,-0.00092305,
 0.00035510,0.00008779,0.00032179,-0.00002207,-0.00000818,-0.00000081,0
 .00027963,-0.00009075,0.00018541,-0.00005491,0.00011118,0.00029599,-0.
 00001166,-0.00001096,-0.00009702,0.00021597,0.00010144,-0.00004533,-0.
 00011752,-0.00002926,0.00013097,0.00002287,0.00000630,-0.00001622,0.00
 014795,-0.00002079,-0.00008035,-0.00014574,-0.00001168,0.00011943,-0.0
 0009950,0.00003387,0.00014699,0.00195177,-0.00017016,0.00004152,0.0005
 3801,0.00011832,0.00026049,-0.00967523,0.00192426,0.00653985,-0.099182
 97,0.10957827,0.02545930,0.01446799,-0.00249587,0.00348835,0.09302990,
 0.00001193,-0.00004519,0.00000747,0.00001306,0.00003244,0.00002941,-0.
 00005332,-0.00005047,0.00011304,-0.00003699,0.00003203,-0.00000999,0.0
 0000365,-0.00001921,-0.00000234,0.00021775,0.00009798,-0.00018340,0.00
 002450,0.00001236,0.00013325,-0.00000442,-0.00009593,0.00007987,-0.000
 03239,-0.00000371,-0.00025252,0.00050651,0.00016520,0.00006983,-0.0000
 2527,0.00002719,0.00000401,0.00000482,0.00000178,0.00003725,-0.0003185
 6,-0.00161482,0.00022190,0.00000101,-0.00003062,0.00005034,0.00010730,
 -0.00003035,0.00009323,0.00308961,-0.00345084,0.00417849,-0.00014447,-
 0.00000290,-0.00035155,0.00048209,0.00016113,-0.00046735,-0.00036340,-
 0.00013465,-0.00017084,-0.00000969,-0.00010098,0.00013049,-0.00009410,
 0.00027125,-0.00013209,0.00009904,-0.00020752,0.00011402,0.00000688,-0
 .00001728,0.00004311,0.00025540,-0.00028165,0.00026457,0.00012409,0.00
 016157,0.00033275,-0.00004733,0.00004566,-0.00003101,-0.00023873,0.000
 04001,-0.00027611,0.00009681,-0.00002194,-0.00005807,0.00001923,0.0000
 1370,0.00012581,-0.00017985,-0.00007705,-0.00000509,0.00015993,0.00004
 113,-0.00015960,-0.00000209,0.00008831,0.00000441,-0.00022546,0.000131
 34,-0.00010052,0.00021416,0.00002417,-0.00020984,0.00079699,0.00005790
 ,0.00014725,0.00027148,-0.00082268,-0.00008556,0.00084049,0.00113779,0
 .00067308,0.00171586,0.00634254,-0.00362469,0.10710962,-0.17746370,-0.
 04586411,-0.00347778,-0.01443979,-0.00885968,-0.11091834,0.19002578,0.
 00006566,-0.00005180,-0.00003397,0.00004075,0.00002416,-0.00001268,-0.
 00002744,-0.00001337,0.00005536,-0.00000988,-0.00005461,0.00001979,-0.
 00001770,-0.00000948,0.00001207,-0.00000503,0.00009945,-0.00016656,0.0
 0016821,0.00008566,-0.00007555,0.00008943,-0.00006057,0.00003156,-0.00
 016986,-0.00005897,-0.00006237,-0.00006057,0.00005332,-0.00014009,-0.0
 0004096,0.00001210,-0.00001342,0.00002662,0.00005972,0.00004726,0.0001
 8884,-0.00025928,0.00047578,-0.00000805,-0.00001527,0.00002979,0.00006
 029,-0.00003914,0.00006065,-0.00258429,0.00473216,0.00116764,-0.000150
 80,-0.00008495,-0.00024220,-0.00026385,0.00065192,0.00046311,-0.000048
 58,-0.00019874,0.00012822,0.00000220,-0.00016782,-0.00006667,0.0000061
 6,0.00011736,-0.00006581,0.00003821,-0.00008125,0.00004465,-0.00000174
 ,-0.00000662,0.00001588,0.00094182,0.00023267,0.00043624,-0.00036494,0
 .00006000,-0.00011550,-0.00000630,0.00007942,0.00002288,-0.00017540,0.
 00006584,-0.00006745,-0.00005757,-0.00011453,-0.00027360,0.00000168,0.
 00000244,0.00005482,-0.00017964,-0.00005263,0.00010364,0.00007518,0.00
 001321,-0.00009814,-0.00003694,0.00000751,0.00002439,0.00001404,0.0000
 2698,0.00025996,0.00010410,-0.00000633,-0.00007134,-0.00028239,-0.0000
 4259,-0.00011923,0.00053119,-0.00110564,-0.00038560,0.00049399,0.00053
 664,0.00046634,0.00704151,-0.00324527,-0.00325427,0.02473948,-0.046486
 81,-0.02830588,0.00308694,-0.00869569,-0.00325004,-0.03322434,0.053990
 78,0.03290033\\-0.00000521,-0.00001122,0.00001253,-0.00000161,-0.00000
 005,-0.00000637,0.00000380,-0.00000063,0.00000309,0.00000445,0.0000012
 2,0.00000252,0.00000525,-0.00000213,0.00000246,-0.00001147,0.00001463,
 -0.00002718,0.00000222,-0.00000184,0.00001213,-0.00000237,0.00000773,0
 .00000074,0.00001648,-0.00001865,0.00000812,-0.00001769,0.00000012,0.0
 0000606,-0.00000415,-0.00000089,0.00000648,-0.00000222,0.00000583,-0.0
 0001733,0.00001137,0.00000261,-0.00002211,-0.00000026,-0.00000480,0.00
 000395,0.00000186,-0.00000952,0.00000474,-0.00001745,-0.00000039,0.000
 00713,0.00000969,0.00000099,-0.00000113,-0.00000079,-0.00000458,-0.000
 00372,0.00000089,-0.00000247,0.00000124,0.00000305,0.00000487,0.000007
 77,0.00000670,0.00000548,0.00000017,-0.00000305,-0.00000291,-0.0000014
 7,-0.00000202,-0.00000152,-0.00000101,-0.00001150,0.00000735,0.0000240
 2,0.00000124,-0.00000375,-0.00000812,0.00000582,0.00001137,-0.00000325
 ,0.00000122,0.00001223,-0.00002614,0.00000236,-0.00000739,-0.00000428,
 -0.00000796,0.00000233,0.00000484,0.00000649,-0.00000364,-0.00000440,0
 .00000023,-0.00000143,-0.00000097,-0.00000231,0.00000161,0.00000738,-0
 .00000336,-0.00000072,0.00000151,0.00000010,-0.00000005,-0.00000002,-0
 .00000436,-0.00000193,0.00000625,0.00002888,0.00000061,0.00000059,-0.0
 0002108,0.00000704,0.00000004,-0.00000122,-0.00000837,-0.00001118,0.00
 000834,-0.00000025,0.00000796,0.00000310,0.00000404,0.00000169,-0.0000
 0348,-0.00000093,0.00000530\\\@
 The archive entry for this job was punched.


 CONFIDENCE: THAT QUIET ASSURED FEELING YOU HAVE
 JUST BEFORE YOU FALL FLAT ON YOUR FACE.
 Job cpu time:       1 days  5 hours 37 minutes 31.5 seconds.
 Elapsed time:       0 days  0 hours 37 minutes 57.7 seconds.
 File lengths (MBytes):  RWF=   4021 Int=      0 D2E=      0 Chk=     58 Scr=      2
 Normal termination of Gaussian 16 at Tue Dec 20 13:22:39 2022.
