 Entering Gaussian System, Link 0=g16
 Initial command:
 /home/chesagar/softwares/G16_AVX2//g16/l1.exe "/home/chesagar/scratch/Gau-204371.inp" -scrdir="/home/chesagar/scratch/"
 Entering Link 1 = /home/chesagar/softwares/G16_AVX2//g16/l1.exe PID=    204373.
  
 Copyright (c) 1988-2019, Gaussian, Inc.  All Rights Reserved.
  
 This is part of the Gaussian(R) 16 program.  It is based on
 the Gaussian(R) 09 system (copyright 2009, Gaussian, Inc.),
 the Gaussian(R) 03 system (copyright 2003, Gaussian, Inc.),
 the Gaussian(R) 98 system (copyright 1998, Gaussian, Inc.),
 the Gaussian(R) 94 system (copyright 1995, Gaussian, Inc.),
 the Gaussian 92(TM) system (copyright 1992, Gaussian, Inc.),
 the Gaussian 90(TM) system (copyright 1990, Gaussian, Inc.),
 the Gaussian 88(TM) system (copyright 1988, Gaussian, Inc.),
 the Gaussian 86(TM) system (copyright 1986, Carnegie Mellon
 University), and the Gaussian 82(TM) system (copyright 1983,
 Carnegie Mellon University). Gaussian is a federally registered
 trademark of Gaussian, Inc.
  
 This software contains proprietary and confidential information,
 including trade secrets, belonging to Gaussian, Inc.
  
 This software is provided under written license and may be
 used, copied, transmitted, or stored only in accord with that
 written license.
  
 The following legend is applicable only to US Government
 contracts under FAR:
  
                    RESTRICTED RIGHTS LEGEND
  
 Use, reproduction and disclosure by the US Government is
 subject to restrictions as set forth in subparagraphs (a)
 and (c) of the Commercial Computer Software - Restricted
 Rights clause in FAR 52.227-19.
  
 Gaussian, Inc.
 340 Quinnipiac St., Bldg. 40, Wallingford CT 06492
  
  
 ---------------------------------------------------------------
 Warning -- This program may not be used in any manner that
 competes with the business of Gaussian, Inc. or will provide
 assistance to any competitor of Gaussian, Inc.  The licensee
 of this program is prohibited from giving any competitor of
 Gaussian, Inc. access to this program.  By using this program,
 the user acknowledges that Gaussian, Inc. is engaged in the
 business of creating and licensing software in the field of
 computational chemistry and represents and warrants to the
 licensee that it is not a competitor of Gaussian, Inc. and that
 it will not use this program in any manner prohibited above.
 ---------------------------------------------------------------
  

 Cite this work as:
 Gaussian 16, Revision C.01,
 M. J. Frisch, G. W. Trucks, H. B. Schlegel, G. E. Scuseria, 
 M. A. Robb, J. R. Cheeseman, G. Scalmani, V. Barone, 
 G. A. Petersson, H. Nakatsuji, X. Li, M. Caricato, A. V. Marenich, 
 J. Bloino, B. G. Janesko, R. Gomperts, B. Mennucci, H. P. Hratchian, 
 J. V. Ortiz, A. F. Izmaylov, J. L. Sonnenberg, D. Williams-Young, 
 F. Ding, F. Lipparini, F. Egidi, J. Goings, B. Peng, A. Petrone, 
 T. Henderson, D. Ranasinghe, V. G. Zakrzewski, J. Gao, N. Rega, 
 G. Zheng, W. Liang, M. Hada, M. Ehara, K. Toyota, R. Fukuda, 
 J. Hasegawa, M. Ishida, T. Nakajima, Y. Honda, O. Kitao, H. Nakai, 
 T. Vreven, K. Throssell, J. A. Montgomery, Jr., J. E. Peralta, 
 F. Ogliaro, M. J. Bearpark, J. J. Heyd, E. N. Brothers, K. N. Kudin, 
 V. N. Staroverov, T. A. Keith, R. Kobayashi, J. Normand, 
 K. Raghavachari, A. P. Rendell, J. C. Burant, S. S. Iyengar, 
 J. Tomasi, M. Cossi, J. M. Millam, M. Klene, C. Adamo, R. Cammi, 
 J. W. Ochterski, R. L. Martin, K. Morokuma, O. Farkas, 
 J. B. Foresman, and D. J. Fox, Gaussian, Inc., Wallingford CT, 2019.
 
 ******************************************
 Gaussian 16:  ES64L-G16RevC.01  3-Jul-2019
                20-Dec-2022 
 ******************************************
 %nprocshared=48
 Will use up to   48 processors via shared memory.
 %mem=100GB
 ---------------------------------------
 # opt freq b3lyp/gen nosymm pseudo=read
 ---------------------------------------
 1/18=20,19=15,26=3,38=1/1,3;
 2/9=110,12=2,15=1,17=6,18=5,40=1/2;
 3/5=7,11=2,16=1,17=8,25=1,30=1,71=1,74=-5/1,2,3;
 4//1;
 5/5=2,38=5/2;
 6/7=2,8=2,9=2,10=2,28=1/1;
 7/30=1/1,2,3,16;
 1/18=20,19=15,26=3/3(2);
 2/9=110,15=1/2;
 99//99;
 2/9=110,15=1/2;
 3/5=7,6=1,11=2,16=1,17=8,25=1,30=1,71=1,74=-5,82=7/1,2,3;
 4/5=5,16=3,69=1/1;
 5/5=2,38=5/2;
 7/30=1/1,2,3,16;
 1/18=20,19=15,26=3/3(-5);
 2/9=110,15=1/2;
 6/7=2,8=2,9=2,10=2,19=2,28=1/1;
 99/9=1/99;
 -------------------
 Title Card Required
 -------------------
 Symbolic Z-matrix:
 Charge =  0 Multiplicity = 1
 Mo                    0.33661   1.4288    12.23214 
 S                     1.28773   3.57438   12.48503 
 S                    -1.79317   2.10813   13.03311 
 S                    -0.35583   0.95579   10.01841 
 S                     2.23172  -0.15564   11.66575 
 Mo                   -1.95076   2.62126   10.76456 
 S                    -2.82582   2.13966   8.50813 
 S                    -1.11353   4.69271   10.40113 
 Mo                    0.81957   3.10727   10.12982 
 S                     0.2559    3.32931   7.66489 
 S                     2.74796   1.91637   9.22208 
 Mo                    3.01729   2.25724   11.57834 
 Mo                   -1.69375   4.71254   7.83915 
 S                     4.08159   1.91413   13.91267 
 S                     4.68182   3.895     11.48287 
 S                    -4.08602   5.53098   8.37269 
 S                    -0.67065   6.84747   8.03997 
 Mo                   -4.52839   3.41854   9.332 
 S                    -6.60349   3.65195   9.68694 
 S                    -4.13463   3.60599   11.4975 
 Mo                    2.66449   0.2109    13.90332 
 S                     3.42346  -1.48611   14.92293 
 S                     0.69311   0.8505    14.70652 
 Mo                    1.45112   5.55437   7.33956 
 S                     0.92049   5.35681   4.9056 
 S                     1.76328   5.50045   9.87828 
 Mo                    3.50962   4.17967   9.45698 
 S                     3.41728   4.05737   6.95096 
 S                     5.26251   6.02517   9.3123 
 Mo                    4.43435   6.10573   7.27341 
 S                     5.96308   6.50105   5.86899 
 S                     2.71746   7.73518   7.50686 
 Mo                    1.84292   7.48892   5.28243 
 S                     3.3187    7.81398   3.79408 
 S                     0.16832   8.87869   5.24768 
 Mo                   -1.06029   6.47322   5.77991 
 S                    -1.94437   4.21332   5.43788 
 S                    -2.95737   7.14127   5.2645 
 Mo                   -4.15834   4.73798   6.08789 
 S                    -4.96922   2.96301   6.76924 
 S                    -5.94434   5.87566   5.76325 
 Mo                   -6.69795   4.23616   7.59423 
 C                    -8.24628   5.37645   8.33314 
 C                    -7.36242   4.57788   5.67452 
 C                    -7.88316   2.55492   7.70519 
 O                    -9.08464   5.99387   8.73323 
 O                    -7.7222    4.76292   4.63508 
 O                    -8.52491   1.64461   7.76527 
 

 GradGradGradGradGradGradGradGradGradGradGradGradGradGradGradGradGradGrad
 Berny optimization.
 Initialization pass.
                           ----------------------------
                           !    Initial Parameters    !
                           ! (Angstroms and Degrees)  !
 --------------------------                            --------------------------
 ! Name  Definition              Value          Derivative Info.                !
 --------------------------------------------------------------------------------
 ! R1    R(1,2)                  2.3605         estimate D2E/DX2                !
 ! R2    R(1,3)                  2.3747         estimate D2E/DX2                !
 ! R3    R(1,4)                  2.3672         estimate D2E/DX2                !
 ! R4    R(1,5)                  2.5343         estimate D2E/DX2                !
 ! R5    R(1,6)                  2.9678         estimate D2E/DX2                !
 ! R6    R(1,9)                  2.7332         estimate D2E/DX2                !
 ! R7    R(1,12)                 2.8809         estimate D2E/DX2                !
 ! R8    R(1,21)                 3.1137         estimate D2E/DX2                !
 ! R9    R(1,23)                 2.566          estimate D2E/DX2                !
 ! R10   R(2,9)                  2.4463         estimate D2E/DX2                !
 ! R11   R(2,12)                 2.3555         estimate D2E/DX2                !
 ! R12   R(3,6)                  2.3312         estimate D2E/DX2                !
 ! R13   R(4,6)                  2.4237         estimate D2E/DX2                !
 ! R14   R(4,9)                  2.4541         estimate D2E/DX2                !
 ! R15   R(5,12)                 2.5391         estimate D2E/DX2                !
 ! R16   R(5,21)                 2.3083         estimate D2E/DX2                !
 ! R17   R(6,7)                  2.4676         estimate D2E/DX2                !
 ! R18   R(6,8)                  2.2636         estimate D2E/DX2                !
 ! R19   R(6,9)                  2.8834         estimate D2E/DX2                !
 ! R20   R(6,18)                 3.0548         estimate D2E/DX2                !
 ! R21   R(6,20)                 2.5052         estimate D2E/DX2                !
 ! R22   R(7,18)                 2.2832         estimate D2E/DX2                !
 ! R23   R(8,9)                  2.5148         estimate D2E/DX2                !
 ! R24   R(8,13)                 2.6269         estimate D2E/DX2                !
 ! R25   R(9,10)                 2.5383         estimate D2E/DX2                !
 ! R26   R(9,11)                 2.4415         estimate D2E/DX2                !
 ! R27   R(9,12)                 2.766          estimate D2E/DX2                !
 ! R28   R(9,26)                 2.5848         estimate D2E/DX2                !
 ! R29   R(9,27)                 2.9731         estimate D2E/DX2                !
 ! R30   R(10,13)                2.3968         estimate D2E/DX2                !
 ! R31   R(10,24)                2.5466         estimate D2E/DX2                !
 ! R32   R(11,12)                2.396          estimate D2E/DX2                !
 ! R33   R(11,27)                2.3996         estimate D2E/DX2                !
 ! R34   R(12,14)                2.5883         estimate D2E/DX2                !
 ! R35   R(12,15)                2.3371         estimate D2E/DX2                !
 ! R36   R(12,21)                3.1173         estimate D2E/DX2                !
 ! R37   R(12,27)                2.9049         estimate D2E/DX2                !
 ! R38   R(13,16)                2.5841         estimate D2E/DX2                !
 ! R39   R(13,17)                2.3759         estimate D2E/DX2                !
 ! R40   R(13,36)                2.7824         estimate D2E/DX2                !
 ! R41   R(13,37)                2.4654         estimate D2E/DX2                !
 ! R42   R(13,39)                3.0235         estimate D2E/DX2                !
 ! R43   R(14,21)                2.2157         estimate D2E/DX2                !
 ! R44   R(15,27)                2.3578         estimate D2E/DX2                !
 ! R45   R(16,18)                2.3619         estimate D2E/DX2                !
 ! R46   R(16,39)                2.4196         estimate D2E/DX2                !
 ! R47   R(17,24)                2.5816         estimate D2E/DX2                !
 ! R48   R(17,36)                2.3237         estimate D2E/DX2                !
 ! R49   R(18,19)                2.1181         estimate D2E/DX2                !
 ! R50   R(18,20)                2.209          estimate D2E/DX2                !
 ! R51   R(18,40)                2.64           estimate D2E/DX2                !
 ! R52   R(18,42)                2.8975         estimate D2E/DX2                !
 ! R53   R(19,42)                2.1748         estimate D2E/DX2                !
 ! R54   R(21,22)                2.1202         estimate D2E/DX2                !
 ! R55   R(21,23)                2.2227         estimate D2E/DX2                !
 ! R56   R(24,25)                2.4989         estimate D2E/DX2                !
 ! R57   R(24,26)                2.5584         estimate D2E/DX2                !
 ! R58   R(24,28)                2.5016         estimate D2E/DX2                !
 ! R59   R(24,30)                3.0345         estimate D2E/DX2                !
 ! R60   R(24,32)                2.5274         estimate D2E/DX2                !
 ! R61   R(24,33)                2.8509         estimate D2E/DX2                !
 ! R62   R(24,36)                3.0958         estimate D2E/DX2                !
 ! R63   R(25,33)                2.3535         estimate D2E/DX2                !
 ! R64   R(25,36)                2.436          estimate D2E/DX2                !
 ! R65   R(26,27)                2.2297         estimate D2E/DX2                !
 ! R66   R(27,28)                2.5107         estimate D2E/DX2                !
 ! R67   R(27,29)                2.5494         estimate D2E/DX2                !
 ! R68   R(27,30)                3.055          estimate D2E/DX2                !
 ! R69   R(28,30)                2.3096         estimate D2E/DX2                !
 ! R70   R(29,30)                2.2021         estimate D2E/DX2                !
 ! R71   R(30,31)                2.1132         estimate D2E/DX2                !
 ! R72   R(30,32)                2.3785         estimate D2E/DX2                !
 ! R73   R(32,33)                2.4028         estimate D2E/DX2                !
 ! R74   R(33,34)                2.121          estimate D2E/DX2                !
 ! R75   R(33,35)                2.1765         estimate D2E/DX2                !
 ! R76   R(33,36)                3.1157         estimate D2E/DX2                !
 ! R77   R(35,36)                2.753          estimate D2E/DX2                !
 ! R78   R(36,37)                2.4507         estimate D2E/DX2                !
 ! R79   R(36,38)                2.0763         estimate D2E/DX2                !
 ! R80   R(37,39)                2.3663         estimate D2E/DX2                !
 ! R81   R(39,40)                2.0669         estimate D2E/DX2                !
 ! R82   R(39,41)                2.1423         estimate D2E/DX2                !
 ! R83   R(39,42)                2.9951         estimate D2E/DX2                !
 ! R84   R(40,42)                2.3            estimate D2E/DX2                !
 ! R85   R(41,42)                2.5707         estimate D2E/DX2                !
 ! R86   R(41,44)                1.9243         estimate D2E/DX2                !
 ! R87   R(42,43)                2.06           estimate D2E/DX2                !
 ! R88   R(42,44)                2.06           estimate D2E/DX2                !
 ! R89   R(42,45)                2.06           estimate D2E/DX2                !
 ! R90   R(43,46)                1.1154         estimate D2E/DX2                !
 ! R91   R(44,47)                1.1154         estimate D2E/DX2                !
 ! R92   R(45,48)                1.1154         estimate D2E/DX2                !
 ! A1    A(2,1,3)               93.7391         estimate D2E/DX2                !
 ! A2    A(2,1,4)              113.5572         estimate D2E/DX2                !
 ! A3    A(2,1,5)              106.9124         estimate D2E/DX2                !
 ! A4    A(2,1,6)               89.9032         estimate D2E/DX2                !
 ! A5    A(2,1,21)              89.8158         estimate D2E/DX2                !
 ! A6    A(2,1,23)              92.6113         estimate D2E/DX2                !
 ! A7    A(3,1,4)               96.3294         estimate D2E/DX2                !
 ! A8    A(3,1,5)              157.6544         estimate D2E/DX2                !
 ! A9    A(3,1,9)              104.0189         estimate D2E/DX2                !
 ! A10   A(3,1,12)             145.9772         estimate D2E/DX2                !
 ! A11   A(3,1,21)             126.9694         estimate D2E/DX2                !
 ! A12   A(3,1,23)              82.173          estimate D2E/DX2                !
 ! A13   A(4,1,5)               83.3856         estimate D2E/DX2                !
 ! A14   A(4,1,12)              96.7427         estimate D2E/DX2                !
 ! A15   A(4,1,21)             129.9745         estimate D2E/DX2                !
 ! A16   A(4,1,23)             153.8171         estimate D2E/DX2                !
 ! A17   A(5,1,6)              135.8098         estimate D2E/DX2                !
 ! A18   A(5,1,9)               94.5829         estimate D2E/DX2                !
 ! A19   A(5,1,23)              88.3221         estimate D2E/DX2                !
 ! A20   A(6,1,12)             119.3006         estimate D2E/DX2                !
 ! A21   A(6,1,23)             132.4145         estimate D2E/DX2                !
 ! A22   A(9,1,21)             121.3949         estimate D2E/DX2                !
 ! A23   A(9,1,23)             148.8252         estimate D2E/DX2                !
 ! A24   A(12,1,23)             98.8805         estimate D2E/DX2                !
 ! A25   A(1,6,7)              130.3214         estimate D2E/DX2                !
 ! A26   A(1,6,8)               99.3241         estimate D2E/DX2                !
 ! A27   A(1,6,20)             133.2458         estimate D2E/DX2                !
 ! A28   A(3,6,4)               95.9605         estimate D2E/DX2                !
 ! A29   A(3,6,7)              150.5583         estimate D2E/DX2                !
 ! A30   A(3,6,8)              109.4307         estimate D2E/DX2                !
 ! A31   A(3,6,9)              100.7414         estimate D2E/DX2                !
 ! A32   A(3,6,18)             124.8085         estimate D2E/DX2                !
 ! A33   A(3,6,20)              81.9956         estimate D2E/DX2                !
 ! A34   A(4,6,7)               79.4985         estimate D2E/DX2                !
 ! A35   A(4,6,8)              109.6336         estimate D2E/DX2                !
 ! A36   A(4,6,18)             126.1732         estimate D2E/DX2                !
 ! A37   A(4,6,20)             159.0369         estimate D2E/DX2                !
 ! A38   A(7,6,8)               99.378          estimate D2E/DX2                !
 ! A39   A(7,6,9)               99.9223         estimate D2E/DX2                !
 ! A40   A(7,6,20)              92.0119         estimate D2E/DX2                !
 ! A41   A(8,6,18)              89.8834         estimate D2E/DX2                !
 ! A42   A(8,6,20)              90.5555         estimate D2E/DX2                !
 ! A43   A(9,6,18)             131.5657         estimate D2E/DX2                !
 ! A44   A(9,6,20)             146.6888         estimate D2E/DX2                !
 ! A45   A(6,8,13)              94.6919         estimate D2E/DX2                !
 ! A46   A(9,8,13)              93.9751         estimate D2E/DX2                !
 ! A47   A(1,9,8)               99.6919         estimate D2E/DX2                !
 ! A48   A(1,9,10)             139.5909         estimate D2E/DX2                !
 ! A49   A(1,9,11)              97.2384         estimate D2E/DX2                !
 ! A50   A(1,9,26)             135.0683         estimate D2E/DX2                !
 ! A51   A(1,9,27)             123.7429         estimate D2E/DX2                !
 ! A52   A(2,9,4)              107.6233         estimate D2E/DX2                !
 ! A53   A(2,9,6)               90.2357         estimate D2E/DX2                !
 ! A54   A(2,9,8)               85.5757         estimate D2E/DX2                !
 ! A55   A(2,9,10)             163.8909         estimate D2E/DX2                !
 ! A56   A(2,9,11)             107.4536         estimate D2E/DX2                !
 ! A57   A(2,9,26)              81.2007         estimate D2E/DX2                !
 ! A58   A(2,9,27)              88.6161         estimate D2E/DX2                !
 ! A59   A(4,9,8)              100.9198         estimate D2E/DX2                !
 ! A60   A(4,9,10)              85.7705         estimate D2E/DX2                !
 ! A61   A(4,9,11)              86.2037         estimate D2E/DX2                !
 ! A62   A(4,9,12)              97.7529         estimate D2E/DX2                !
 ! A63   A(4,9,27)             137.6716         estimate D2E/DX2                !
 ! A64   A(6,9,10)              90.8688         estimate D2E/DX2                !
 ! A65   A(6,9,11)             139.3324         estimate D2E/DX2                !
 ! A66   A(6,9,12)             126.6063         estimate D2E/DX2                !
 ! A67   A(6,9,26)             121.8888         estimate D2E/DX2                !
 ! A68   A(8,9,10)              83.0455         estimate D2E/DX2                !
 ! A69   A(8,9,11)             162.7027         estimate D2E/DX2                !
 ! A70   A(8,9,12)             138.4184         estimate D2E/DX2                !
 ! A71   A(8,9,26)              72.9886         estimate D2E/DX2                !
 ! A72   A(8,9,27)             119.507          estimate D2E/DX2                !
 ! A73   A(10,9,11)             81.7794         estimate D2E/DX2                !
 ! A74   A(10,9,12)            135.3882         estimate D2E/DX2                !
 ! A75   A(10,9,26)             84.5824         estimate D2E/DX2                !
 ! A76   A(10,9,27)             87.1114         estimate D2E/DX2                !
 ! A77   A(11,9,26)             97.2998         estimate D2E/DX2                !
 ! A78   A(12,9,26)             92.6022         estimate D2E/DX2                !
 ! A79   A(9,10,13)             99.237          estimate D2E/DX2                !
 ! A80   A(9,10,24)             95.5242         estimate D2E/DX2                !
 ! A81   A(13,10,24)            83.5016         estimate D2E/DX2                !
 ! A82   A(1,12,11)             94.4546         estimate D2E/DX2                !
 ! A83   A(1,12,14)             98.0374         estimate D2E/DX2                !
 ! A84   A(1,12,15)            150.8675         estimate D2E/DX2                !
 ! A85   A(1,12,27)            120.9131         estimate D2E/DX2                !
 ! A86   A(2,12,5)             106.9157         estimate D2E/DX2                !
 ! A87   A(2,12,11)            112.0589         estimate D2E/DX2                !
 ! A88   A(2,12,14)             91.6559         estimate D2E/DX2                !
 ! A89   A(2,12,15)             98.4433         estimate D2E/DX2                !
 ! A90   A(2,12,21)             89.8213         estimate D2E/DX2                !
 ! A91   A(2,12,27)             92.0337         estimate D2E/DX2                !
 ! A92   A(5,12,9)              93.6833         estimate D2E/DX2                !
 ! A93   A(5,12,11)             82.1764         estimate D2E/DX2                !
 ! A94   A(5,12,14)             88.2923         estimate D2E/DX2                !
 ! A95   A(5,12,15)            152.5868         estimate D2E/DX2                !
 ! A96   A(5,12,27)            134.9498         estimate D2E/DX2                !
 ! A97   A(9,12,14)            147.1129         estimate D2E/DX2                !
 ! A98   A(9,12,15)            109.217          estimate D2E/DX2                !
 ! A99   A(9,12,21)            120.1588         estimate D2E/DX2                !
 ! A100  A(11,12,14)           156.1029         estimate D2E/DX2                !
 ! A101  A(11,12,15)            98.0238         estimate D2E/DX2                !
 ! A102  A(11,12,21)           128.8554         estimate D2E/DX2                !
 ! A103  A(14,12,15)            80.6118         estimate D2E/DX2                !
 ! A104  A(14,12,27)           132.582          estimate D2E/DX2                !
 ! A105  A(15,12,21)           124.8262         estimate D2E/DX2                !
 ! A106  A(8,13,10)             83.5049         estimate D2E/DX2                !
 ! A107  A(8,13,16)             90.3152         estimate D2E/DX2                !
 ! A108  A(8,13,17)             80.1677         estimate D2E/DX2                !
 ! A109  A(8,13,36)            132.5541         estimate D2E/DX2                !
 ! A110  A(8,13,39)            138.1585         estimate D2E/DX2                !
 ! A111  A(10,13,16)           161.9603         estimate D2E/DX2                !
 ! A112  A(10,13,17)           100.0462         estimate D2E/DX2                !
 ! A113  A(10,13,36)            97.2494         estimate D2E/DX2                !
 ! A114  A(10,13,37)            83.9739         estimate D2E/DX2                !
 ! A115  A(10,13,39)           128.7409         estimate D2E/DX2                !
 ! A116  A(16,13,17)            95.5434         estimate D2E/DX2                !
 ! A117  A(16,13,36)            99.3904         estimate D2E/DX2                !
 ! A118  A(16,13,37)            99.8534         estimate D2E/DX2                !
 ! A119  A(17,13,37)           107.9421         estimate D2E/DX2                !
 ! A120  A(17,13,39)           113.1043         estimate D2E/DX2                !
 ! A121  A(36,13,39)            75.6163         estimate D2E/DX2                !
 ! A122  A(13,16,18)            88.5089         estimate D2E/DX2                !
 ! A123  A(18,16,39)            94.8652         estimate D2E/DX2                !
 ! A124  A(13,17,24)            83.1595         estimate D2E/DX2                !
 ! A125  A(6,18,16)            105.4181         estimate D2E/DX2                !
 ! A126  A(6,18,19)            140.9701         estimate D2E/DX2                !
 ! A127  A(6,18,40)            123.4422         estimate D2E/DX2                !
 ! A128  A(7,18,16)            102.4008         estimate D2E/DX2                !
 ! A129  A(7,18,19)            148.51           estimate D2E/DX2                !
 ! A130  A(7,18,20)            105.566          estimate D2E/DX2                !
 ! A131  A(7,18,40)             71.1911         estimate D2E/DX2                !
 ! A132  A(7,18,42)            120.0            estimate D2E/DX2                !
 ! A133  A(16,18,19)            98.8004         estimate D2E/DX2                !
 ! A134  A(16,18,20)           106.7914         estimate D2E/DX2                !
 ! A135  A(16,18,40)            77.9548         estimate D2E/DX2                !
 ! A136  A(16,18,42)            69.161          estimate D2E/DX2                !
 ! A137  A(19,18,20)            90.0575         estimate D2E/DX2                !
 ! A138  A(19,18,40)            91.0368         estimate D2E/DX2                !
 ! A139  A(20,18,42)           134.2248         estimate D2E/DX2                !
 ! A140  A(1,21,14)            100.3552         estimate D2E/DX2                !
 ! A141  A(1,21,22)            147.0121         estimate D2E/DX2                !
 ! A142  A(5,21,14)            104.2448         estimate D2E/DX2                !
 ! A143  A(5,21,22)            113.9645         estimate D2E/DX2                !
 ! A144  A(5,21,23)            103.2788         estimate D2E/DX2                !
 ! A145  A(12,21,22)           147.518          estimate D2E/DX2                !
 ! A146  A(12,21,23)           100.4276         estimate D2E/DX2                !
 ! A147  A(14,21,22)           112.5998         estimate D2E/DX2                !
 ! A148  A(14,21,23)           110.1528         estimate D2E/DX2                !
 ! A149  A(22,21,23)           111.9638         estimate D2E/DX2                !
 ! A150  A(10,24,17)            90.988          estimate D2E/DX2                !
 ! A151  A(10,24,25)            87.4607         estimate D2E/DX2                !
 ! A152  A(10,24,26)            84.9562         estimate D2E/DX2                !
 ! A153  A(10,24,28)            82.2916         estimate D2E/DX2                !
 ! A154  A(10,24,30)           128.532          estimate D2E/DX2                !
 ! A155  A(10,24,33)           138.553          estimate D2E/DX2                !
 ! A156  A(10,24,36)            86.7293         estimate D2E/DX2                !
 ! A157  A(17,24,25)            97.431          estimate D2E/DX2                !
 ! A158  A(17,24,26)            80.8868         estimate D2E/DX2                !
 ! A159  A(17,24,30)           136.2951         estimate D2E/DX2                !
 ! A160  A(17,24,32)            87.8013         estimate D2E/DX2                !
 ! A161  A(17,24,33)            88.2137         estimate D2E/DX2                !
 ! A162  A(25,24,28)            88.1827         estimate D2E/DX2                !
 ! A163  A(25,24,30)           101.6476         estimate D2E/DX2                !
 ! A164  A(25,24,32)           103.8326         estimate D2E/DX2                !
 ! A165  A(26,24,28)            92.6155         estimate D2E/DX2                !
 ! A166  A(26,24,30)            84.5777         estimate D2E/DX2                !
 ! A167  A(26,24,32)            83.7632         estimate D2E/DX2                !
 ! A168  A(26,24,33)           135.5241         estimate D2E/DX2                !
 ! A169  A(26,24,36)           127.2401         estimate D2E/DX2                !
 ! A170  A(28,24,32)            97.6338         estimate D2E/DX2                !
 ! A171  A(28,24,33)           100.7177         estimate D2E/DX2                !
 ! A172  A(28,24,36)           137.4733         estimate D2E/DX2                !
 ! A173  A(30,24,33)            74.0897         estimate D2E/DX2                !
 ! A174  A(30,24,36)           137.1066         estimate D2E/DX2                !
 ! A175  A(32,24,36)           100.586          estimate D2E/DX2                !
 ! A176  A(9,26,24)             94.1017         estimate D2E/DX2                !
 ! A177  A(24,26,27)            85.4431         estimate D2E/DX2                !
 ! A178  A(9,27,15)            102.2294         estimate D2E/DX2                !
 ! A179  A(9,27,28)            100.0807         estimate D2E/DX2                !
 ! A180  A(9,27,29)            153.6469         estimate D2E/DX2                !
 ! A181  A(9,27,30)            131.5331         estimate D2E/DX2                !
 ! A182  A(11,27,15)            97.3563         estimate D2E/DX2                !
 ! A183  A(11,27,26)           109.1842         estimate D2E/DX2                !
 ! A184  A(11,27,28)            81.0636         estimate D2E/DX2                !
 ! A185  A(11,27,29)           153.5708         estimate D2E/DX2                !
 ! A186  A(11,27,30)           128.373          estimate D2E/DX2                !
 ! A187  A(12,27,26)            96.9664         estimate D2E/DX2                !
 ! A188  A(12,27,28)           133.6651         estimate D2E/DX2                !
 ! A189  A(12,27,29)           129.572          estimate D2E/DX2                !
 ! A190  A(15,27,26)           107.3702         estimate D2E/DX2                !
 ! A191  A(15,27,28)           150.4614         estimate D2E/DX2                !
 ! A192  A(15,27,29)            78.1316         estimate D2E/DX2                !
 ! A193  A(15,27,30)           122.6682         estimate D2E/DX2                !
 ! A194  A(26,27,28)           100.8738         estimate D2E/DX2                !
 ! A195  A(26,27,29)            96.9173         estimate D2E/DX2                !
 ! A196  A(26,27,30)            89.9239         estimate D2E/DX2                !
 ! A197  A(28,27,29)            90.2239         estimate D2E/DX2                !
 ! A198  A(24,28,27)            81.0661         estimate D2E/DX2                !
 ! A199  A(24,30,27)            64.677          estimate D2E/DX2                !
 ! A200  A(24,30,29)           110.0533         estimate D2E/DX2                !
 ! A201  A(24,30,31)           139.4352         estimate D2E/DX2                !
 ! A202  A(27,30,31)           144.286          estimate D2E/DX2                !
 ! A203  A(27,30,32)            98.2369         estimate D2E/DX2                !
 ! A204  A(28,30,29)           105.2143         estimate D2E/DX2                !
 ! A205  A(28,30,31)           113.0599         estimate D2E/DX2                !
 ! A206  A(28,30,32)           107.6629         estimate D2E/DX2                !
 ! A207  A(29,30,31)           110.4942         estimate D2E/DX2                !
 ! A208  A(29,30,32)           101.8676         estimate D2E/DX2                !
 ! A209  A(31,30,32)           117.339          estimate D2E/DX2                !
 ! A210  A(30,32,33)            95.8341         estimate D2E/DX2                !
 ! A211  A(24,33,34)           134.9061         estimate D2E/DX2                !
 ! A212  A(24,33,35)           109.8208         estimate D2E/DX2                !
 ! A213  A(25,33,32)           112.5651         estimate D2E/DX2                !
 ! A214  A(25,33,34)           107.4096         estimate D2E/DX2                !
 ! A215  A(25,33,35)           105.924          estimate D2E/DX2                !
 ! A216  A(32,33,34)           112.375          estimate D2E/DX2                !
 ! A217  A(32,33,35)           103.2604         estimate D2E/DX2                !
 ! A218  A(32,33,36)           102.9874         estimate D2E/DX2                !
 ! A219  A(34,33,35)           115.2317         estimate D2E/DX2                !
 ! A220  A(34,33,36)           144.1278         estimate D2E/DX2                !
 ! A221  A(13,36,24)            67.915          estimate D2E/DX2                !
 ! A222  A(13,36,25)            99.2501         estimate D2E/DX2                !
 ! A223  A(13,36,33)           122.452          estimate D2E/DX2                !
 ! A224  A(13,36,35)           142.9008         estimate D2E/DX2                !
 ! A225  A(13,36,38)           100.3293         estimate D2E/DX2                !
 ! A226  A(17,36,25)           106.6509         estimate D2E/DX2                !
 ! A227  A(17,36,33)            86.936          estimate D2E/DX2                !
 ! A228  A(17,36,35)            88.4226         estimate D2E/DX2                !
 ! A229  A(17,36,37)           110.1666         estimate D2E/DX2                !
 ! A230  A(17,36,38)           110.0489         estimate D2E/DX2                !
 ! A231  A(24,36,35)            89.6963         estimate D2E/DX2                !
 ! A232  A(24,36,37)            95.1214         estimate D2E/DX2                !
 ! A233  A(24,36,38)           164.1089         estimate D2E/DX2                !
 ! A234  A(25,36,35)            88.1762         estimate D2E/DX2                !
 ! A235  A(25,36,37)            79.6668         estimate D2E/DX2                !
 ! A236  A(25,36,38)           143.2553         estimate D2E/DX2                !
 ! A237  A(33,36,37)           127.9142         estimate D2E/DX2                !
 ! A238  A(33,36,38)           134.9794         estimate D2E/DX2                !
 ! A239  A(35,36,37)           160.0118         estimate D2E/DX2                !
 ! A240  A(35,36,38)            94.5101         estimate D2E/DX2                !
 ! A241  A(37,36,38)            86.1264         estimate D2E/DX2                !
 ! A242  A(36,37,39)            95.4357         estimate D2E/DX2                !
 ! A243  A(13,39,40)            96.9862         estimate D2E/DX2                !
 ! A244  A(13,39,41)           140.516          estimate D2E/DX2                !
 ! A245  A(13,39,42)           113.4819         estimate D2E/DX2                !
 ! A246  A(16,39,37)           107.7037         estimate D2E/DX2                !
 ! A247  A(16,39,40)            88.9625         estimate D2E/DX2                !
 ! A248  A(16,39,41)            89.6542         estimate D2E/DX2                !
 ! A249  A(16,39,42)            66.7548         estimate D2E/DX2                !
 ! A250  A(37,39,40)           105.4977         estimate D2E/DX2                !
 ! A251  A(37,39,41)           148.8844         estimate D2E/DX2                !
 ! A252  A(37,39,42)           153.4239         estimate D2E/DX2                !
 ! A253  A(40,39,41)           100.3072         estimate D2E/DX2                !
 ! A254  A(18,40,39)            96.1028         estimate D2E/DX2                !
 ! A255  A(39,41,44)           105.2602         estimate D2E/DX2                !
 ! A256  A(18,42,39)            73.382          estimate D2E/DX2                !
 ! A257  A(18,42,41)           112.8076         estimate D2E/DX2                !
 ! A258  A(18,42,43)           120.2562         estimate D2E/DX2                !
 ! A259  A(18,42,44)           147.9133         estimate D2E/DX2                !
 ! A260  A(18,42,45)            99.6833         estimate D2E/DX2                !
 ! A261  A(19,42,39)           119.4815         estimate D2E/DX2                !
 ! A262  A(19,42,40)            99.4285         estimate D2E/DX2                !
 ! A263  A(19,42,41)           147.5617         estimate D2E/DX2                !
 ! A264  A(19,42,43)            80.5715         estimate D2E/DX2                !
 ! A265  A(19,42,44)           162.8052         estimate D2E/DX2                !
 ! A266  A(19,42,45)            75.7543         estimate D2E/DX2                !
 ! A267  A(39,42,43)           136.4666         estimate D2E/DX2                !
 ! A268  A(39,42,44)            77.116          estimate D2E/DX2                !
 ! A269  A(39,42,45)           130.6689         estimate D2E/DX2                !
 ! A270  A(40,42,41)            82.9467         estimate D2E/DX2                !
 ! A271  A(40,42,44)            90.0            estimate D2E/DX2                !
 ! A272  A(40,42,45)            90.0            estimate D2E/DX2                !
 ! A273  A(41,42,43)            97.0533         estimate D2E/DX2                !
 ! A274  A(41,42,45)           136.6804         estimate D2E/DX2                !
 ! A275  A(43,42,44)            90.0            estimate D2E/DX2                !
 ! A276  A(43,42,45)            90.0            estimate D2E/DX2                !
 ! A277  A(44,42,45)            90.0            estimate D2E/DX2                !
 ! A278  A(41,44,47)            99.718          estimate D2E/DX2                !
 ! A279  L(6,1,21,2,-1)        179.719          estimate D2E/DX2                !
 ! A280  L(1,6,18,8,-1)        189.2075         estimate D2E/DX2                !
 ! A281  L(4,9,26,2,-1)        188.824          estimate D2E/DX2                !
 ! A282  L(6,9,27,2,-1)        178.8519         estimate D2E/DX2                !
 ! A283  L(21,12,27,2,-1)      181.8551         estimate D2E/DX2                !
 ! A284  L(8,13,37,10,-1)      167.4789         estimate D2E/DX2                !
 ! A285  L(6,18,42,16,-1)      174.5792         estimate D2E/DX2                !
 ! A286  L(20,18,40,7,-1)      176.7572         estimate D2E/DX2                !
 ! A287  L(10,24,32,17,-1)     178.7894         estimate D2E/DX2                !
 ! A288  L(17,24,28,10,-1)     173.2796         estimate D2E/DX2                !
 ! A289  L(25,24,26,10,-1)     172.4169         estimate D2E/DX2                !
 ! A290  L(12,27,30,26,-1)     186.8903         estimate D2E/DX2                !
 ! A291  L(40,42,43,19,-1)     180.0            estimate D2E/DX2                !
 ! A292  L(42,43,46,20,-1)     180.0            estimate D2E/DX2                !
 ! A293  L(42,44,47,25,-1)     180.0            estimate D2E/DX2                !
 ! A294  L(42,45,48,1,-1)      180.0            estimate D2E/DX2                !
 ! A295  L(6,1,21,2,-2)        177.1893         estimate D2E/DX2                !
 ! A296  L(1,6,18,8,-2)        180.4056         estimate D2E/DX2                !
 ! A297  L(4,9,26,2,-2)        186.4903         estimate D2E/DX2                !
 ! A298  L(6,9,27,2,-2)        191.4357         estimate D2E/DX2                !
 ! A299  L(21,12,27,2,-2)      177.1959         estimate D2E/DX2                !
 ! A300  L(8,13,37,10,-2)      174.0171         estimate D2E/DX2                !
 ! A301  L(6,18,42,16,-2)      171.976          estimate D2E/DX2                !
 ! A302  L(20,18,40,7,-2)      175.8834         estimate D2E/DX2                !
 ! A303  L(10,24,32,17,-2)     168.7651         estimate D2E/DX2                !
 ! A304  L(17,24,28,10,-2)     185.9036         estimate D2E/DX2                !
 ! A305  L(25,24,26,10,-2)     181.8434         estimate D2E/DX2                !
 ! A306  L(12,27,30,26,-2)     176.1316         estimate D2E/DX2                !
 ! A307  L(40,42,43,19,-2)     180.0            estimate D2E/DX2                !
 ! A308  L(42,43,46,20,-2)     180.0            estimate D2E/DX2                !
 ! A309  L(42,44,47,25,-2)     180.0            estimate D2E/DX2                !
 ! A310  L(42,45,48,1,-2)      180.0            estimate D2E/DX2                !
 ! D1    D(2,1,6,7)            123.3674         estimate D2E/DX2                !
 ! D2    D(2,1,6,8)             12.5169         estimate D2E/DX2                !
 ! D3    D(2,1,6,20)           -87.1499         estimate D2E/DX2                !
 ! D4    D(5,1,6,7)              8.8097         estimate D2E/DX2                !
 ! D5    D(5,1,6,8)           -102.0409         estimate D2E/DX2                !
 ! D6    D(5,1,6,20)           158.2924         estimate D2E/DX2                !
 ! D7    D(12,1,6,7)            78.0123         estimate D2E/DX2                !
 ! D8    D(12,1,6,8)           -32.8382         estimate D2E/DX2                !
 ! D9    D(12,1,6,20)         -132.505          estimate D2E/DX2                !
 ! D10   D(23,1,6,7)          -143.1831         estimate D2E/DX2                !
 ! D11   D(23,1,6,8)           105.9664         estimate D2E/DX2                !
 ! D12   D(23,1,6,20)            6.2996         estimate D2E/DX2                !
 ! D13   D(3,1,9,8)              8.0454         estimate D2E/DX2                !
 ! D14   D(3,1,9,10)           -82.5918         estimate D2E/DX2                !
 ! D15   D(3,1,9,11)          -168.3965         estimate D2E/DX2                !
 ! D16   D(3,1,9,26)            83.6247         estimate D2E/DX2                !
 ! D17   D(3,1,9,27)           143.6866         estimate D2E/DX2                !
 ! D18   D(5,1,9,8)            175.5656         estimate D2E/DX2                !
 ! D19   D(5,1,9,10)            84.9284         estimate D2E/DX2                !
 ! D20   D(5,1,9,11)            -0.8763         estimate D2E/DX2                !
 ! D21   D(5,1,9,26)          -108.8552         estimate D2E/DX2                !
 ! D22   D(5,1,9,27)           -48.7932         estimate D2E/DX2                !
 ! D23   D(21,1,9,8)          -143.4209         estimate D2E/DX2                !
 ! D24   D(21,1,9,10)          125.9419         estimate D2E/DX2                !
 ! D25   D(21,1,9,11)           40.1372         estimate D2E/DX2                !
 ! D26   D(21,1,9,26)          -67.8417         estimate D2E/DX2                !
 ! D27   D(21,1,9,27)           -7.7798         estimate D2E/DX2                !
 ! D28   D(23,1,9,8)           -90.0906         estimate D2E/DX2                !
 ! D29   D(23,1,9,10)          179.2722         estimate D2E/DX2                !
 ! D30   D(23,1,9,11)           93.4675         estimate D2E/DX2                !
 ! D31   D(23,1,9,26)          -14.5114         estimate D2E/DX2                !
 ! D32   D(23,1,9,27)           45.5505         estimate D2E/DX2                !
 ! D33   D(3,1,12,11)         -111.806          estimate D2E/DX2                !
 ! D34   D(3,1,12,14)           88.6168         estimate D2E/DX2                !
 ! D35   D(3,1,12,15)            3.4948         estimate D2E/DX2                !
 ! D36   D(3,1,12,27)          -63.1533         estimate D2E/DX2                !
 ! D37   D(4,1,12,11)            0.1279         estimate D2E/DX2                !
 ! D38   D(4,1,12,14)         -159.4493         estimate D2E/DX2                !
 ! D39   D(4,1,12,15)          115.4287         estimate D2E/DX2                !
 ! D40   D(4,1,12,27)           48.7806         estimate D2E/DX2                !
 ! D41   D(6,1,12,11)          -50.4348         estimate D2E/DX2                !
 ! D42   D(6,1,12,14)          149.9881         estimate D2E/DX2                !
 ! D43   D(6,1,12,15)           64.866          estimate D2E/DX2                !
 ! D44   D(6,1,12,27)           -1.782          estimate D2E/DX2                !
 ! D45   D(23,1,12,11)         159.0476         estimate D2E/DX2                !
 ! D46   D(23,1,12,14)          -0.5296         estimate D2E/DX2                !
 ! D47   D(23,1,12,15)         -85.6516         estimate D2E/DX2                !
 ! D48   D(23,1,12,27)        -152.2997         estimate D2E/DX2                !
 ! D49   D(2,1,21,14)          -13.5581         estimate D2E/DX2                !
 ! D50   D(2,1,21,22)          168.9917         estimate D2E/DX2                !
 ! D51   D(3,1,21,14)         -108.1009         estimate D2E/DX2                !
 ! D52   D(3,1,21,22)           74.4489         estimate D2E/DX2                !
 ! D53   D(4,1,21,14)          107.6961         estimate D2E/DX2                !
 ! D54   D(4,1,21,22)          -69.754          estimate D2E/DX2                !
 ! D55   D(9,1,21,14)           36.4439         estimate D2E/DX2                !
 ! D56   D(9,1,21,22)         -141.0063         estimate D2E/DX2                !
 ! D57   D(1,2,9,12)           -81.2174         estimate D2E/DX2                !
 ! D58   D(1,4,6,9)             71.9322         estimate D2E/DX2                !
 ! D59   D(1,5,12,21)           82.9229         estimate D2E/DX2                !
 ! D60   D(1,6,8,13)           130.7739         estimate D2E/DX2                !
 ! D61   D(3,6,8,13)          -176.8313         estimate D2E/DX2                !
 ! D62   D(4,6,8,13)            79.1194         estimate D2E/DX2                !
 ! D63   D(7,6,8,13)            -2.9939         estimate D2E/DX2                !
 ! D64   D(18,6,8,13)          -49.6316         estimate D2E/DX2                !
 ! D65   D(20,6,8,13)          -95.1249         estimate D2E/DX2                !
 ! D66   D(3,6,9,2)            -22.365          estimate D2E/DX2                !
 ! D67   D(3,6,9,10)           173.7067         estimate D2E/DX2                !
 ! D68   D(3,6,9,11)            95.3483         estimate D2E/DX2                !
 ! D69   D(3,6,9,12)            19.7885         estimate D2E/DX2                !
 ! D70   D(3,6,9,26)          -102.1346         estimate D2E/DX2                !
 ! D71   D(7,6,9,2)            178.7227         estimate D2E/DX2                !
 ! D72   D(7,6,9,10)            14.7944         estimate D2E/DX2                !
 ! D73   D(7,6,9,11)           -63.5641         estimate D2E/DX2                !
 ! D74   D(7,6,9,12)          -139.1238         estimate D2E/DX2                !
 ! D75   D(7,6,9,26)            98.953          estimate D2E/DX2                !
 ! D76   D(18,6,9,2)           138.505          estimate D2E/DX2                !
 ! D77   D(18,6,9,10)          -25.4233         estimate D2E/DX2                !
 ! D78   D(18,6,9,11)         -103.7817         estimate D2E/DX2                !
 ! D79   D(18,6,9,12)         -179.3415         estimate D2E/DX2                !
 ! D80   D(18,6,9,26)           58.7354         estimate D2E/DX2                !
 ! D81   D(20,6,9,2)            69.388          estimate D2E/DX2                !
 ! D82   D(20,6,9,10)          -94.5403         estimate D2E/DX2                !
 ! D83   D(20,6,9,11)         -172.8987         estimate D2E/DX2                !
 ! D84   D(20,6,9,12)          111.5415         estimate D2E/DX2                !
 ! D85   D(20,6,9,26)          -10.3816         estimate D2E/DX2                !
 ! D86   D(3,6,18,16)          122.7078         estimate D2E/DX2                !
 ! D87   D(3,6,18,19)           -3.6072         estimate D2E/DX2                !
 ! D88   D(3,6,18,40)         -151.7246         estimate D2E/DX2                !
 ! D89   D(4,6,18,16)         -105.6088         estimate D2E/DX2                !
 ! D90   D(4,6,18,19)          128.0762         estimate D2E/DX2                !
 ! D91   D(4,6,18,40)          -20.0412         estimate D2E/DX2                !
 ! D92   D(8,6,18,16)            8.8949         estimate D2E/DX2                !
 ! D93   D(8,6,18,19)         -117.4201         estimate D2E/DX2                !
 ! D94   D(8,6,18,40)           94.4625         estimate D2E/DX2                !
 ! D95   D(9,6,18,16)          -34.2046         estimate D2E/DX2                !
 ! D96   D(9,6,18,19)         -160.5196         estimate D2E/DX2                !
 ! D97   D(9,6,18,40)           51.363          estimate D2E/DX2                !
 ! D98   D(13,8,9,1)          -135.7267         estimate D2E/DX2                !
 ! D99   D(13,8,9,2)           172.0802         estimate D2E/DX2                !
 ! D100  D(13,8,9,4)           -80.8021         estimate D2E/DX2                !
 ! D101  D(13,8,9,10)            3.5047         estimate D2E/DX2                !
 ! D102  D(13,8,9,11)           32.323          estimate D2E/DX2                !
 ! D103  D(13,8,9,12)          164.082          estimate D2E/DX2                !
 ! D104  D(13,8,9,26)           89.9417         estimate D2E/DX2                !
 ! D105  D(13,8,9,27)           86.1873         estimate D2E/DX2                !
 ! D106  D(6,8,13,10)          -77.9737         estimate D2E/DX2                !
 ! D107  D(6,8,13,16)           85.0396         estimate D2E/DX2                !
 ! D108  D(6,8,13,17)         -179.3889         estimate D2E/DX2                !
 ! D109  D(6,8,13,36)         -171.8665         estimate D2E/DX2                !
 ! D110  D(6,8,13,39)           66.8161         estimate D2E/DX2                !
 ! D111  D(9,8,13,10)           -3.7083         estimate D2E/DX2                !
 ! D112  D(9,8,13,16)          159.305          estimate D2E/DX2                !
 ! D113  D(9,8,13,17)         -105.1235         estimate D2E/DX2                !
 ! D114  D(9,8,13,36)          -97.6011         estimate D2E/DX2                !
 ! D115  D(9,8,13,39)          141.0815         estimate D2E/DX2                !
 ! D116  D(1,9,10,13)           92.914          estimate D2E/DX2                !
 ! D117  D(1,9,10,24)          177.2055         estimate D2E/DX2                !
 ! D118  D(2,9,10,13)          -49.2599         estimate D2E/DX2                !
 ! D119  D(2,9,10,24)           35.0315         estimate D2E/DX2                !
 ! D120  D(4,9,10,13)           97.6764         estimate D2E/DX2                !
 ! D121  D(4,9,10,24)         -178.0321         estimate D2E/DX2                !
 ! D122  D(6,9,10,13)           44.601          estimate D2E/DX2                !
 ! D123  D(6,9,10,24)          128.8925         estimate D2E/DX2                !
 ! D124  D(8,9,10,13)           -3.8828         estimate D2E/DX2                !
 ! D125  D(8,9,10,24)           80.4086         estimate D2E/DX2                !
 ! D126  D(11,9,10,13)        -175.5565         estimate D2E/DX2                !
 ! D127  D(11,9,10,24)         -91.265          estimate D2E/DX2                !
 ! D128  D(12,9,10,13)        -165.5672         estimate D2E/DX2                !
 ! D129  D(12,9,10,24)         -81.2757         estimate D2E/DX2                !
 ! D130  D(26,9,10,13)         -77.3548         estimate D2E/DX2                !
 ! D131  D(26,9,10,24)           6.9367         estimate D2E/DX2                !
 ! D132  D(27,9,10,13)        -124.0793         estimate D2E/DX2                !
 ! D133  D(27,9,10,24)         -39.7879         estimate D2E/DX2                !
 ! D134  D(4,9,12,5)             1.6616         estimate D2E/DX2                !
 ! D135  D(4,9,12,14)          -90.8924         estimate D2E/DX2                !
 ! D136  D(4,9,12,15)          166.3441         estimate D2E/DX2                !
 ! D137  D(4,9,12,21)          -39.2325         estimate D2E/DX2                !
 ! D138  D(6,9,12,5)            51.0747         estimate D2E/DX2                !
 ! D139  D(6,9,12,14)          -41.4792         estimate D2E/DX2                !
 ! D140  D(6,9,12,15)         -144.2427         estimate D2E/DX2                !
 ! D141  D(6,9,12,21)           10.1806         estimate D2E/DX2                !
 ! D142  D(8,9,12,5)           117.8616         estimate D2E/DX2                !
 ! D143  D(8,9,12,14)           25.3077         estimate D2E/DX2                !
 ! D144  D(8,9,12,15)          -77.4558         estimate D2E/DX2                !
 ! D145  D(8,9,12,21)           76.9675         estimate D2E/DX2                !
 ! D146  D(10,9,12,5)          -90.1734         estimate D2E/DX2                !
 ! D147  D(10,9,12,14)         177.2726         estimate D2E/DX2                !
 ! D148  D(10,9,12,15)          74.5091         estimate D2E/DX2                !
 ! D149  D(10,9,12,21)        -131.0675         estimate D2E/DX2                !
 ! D150  D(26,9,12,5)         -175.0958         estimate D2E/DX2                !
 ! D151  D(26,9,12,14)          92.3503         estimate D2E/DX2                !
 ! D152  D(26,9,12,15)         -10.4132         estimate D2E/DX2                !
 ! D153  D(26,9,12,21)         144.0101         estimate D2E/DX2                !
 ! D154  D(1,9,26,24)         -177.9651         estimate D2E/DX2                !
 ! D155  D(2,9,26,24)         -179.2918         estimate D2E/DX2                !
 ! D156  D(6,9,26,24)          -94.5363         estimate D2E/DX2                !
 ! D157  D(8,9,26,24)          -91.256          estimate D2E/DX2                !
 ! D158  D(10,9,26,24)          -6.89           estimate D2E/DX2                !
 ! D159  D(11,9,26,24)          74.0802         estimate D2E/DX2                !
 ! D160  D(12,9,26,24)         128.4674         estimate D2E/DX2                !
 ! D161  D(1,9,27,15)          -19.7506         estimate D2E/DX2                !
 ! D162  D(1,9,27,28)          140.7624         estimate D2E/DX2                !
 ! D163  D(1,9,27,29)         -107.6566         estimate D2E/DX2                !
 ! D164  D(1,9,27,30)         -178.1537         estimate D2E/DX2                !
 ! D165  D(2,9,27,15)           23.7614         estimate D2E/DX2                !
 ! D166  D(2,9,27,28)         -175.7256         estimate D2E/DX2                !
 ! D167  D(2,9,27,29)          -64.1446         estimate D2E/DX2                !
 ! D168  D(2,9,27,30)         -134.6417         estimate D2E/DX2                !
 ! D169  D(4,9,27,15)          -91.2766         estimate D2E/DX2                !
 ! D170  D(4,9,27,28)           69.2364         estimate D2E/DX2                !
 ! D171  D(4,9,27,29)         -179.1826         estimate D2E/DX2                !
 ! D172  D(4,9,27,30)          110.3204         estimate D2E/DX2                !
 ! D173  D(8,9,27,15)          107.8876         estimate D2E/DX2                !
 ! D174  D(8,9,27,28)          -91.5994         estimate D2E/DX2                !
 ! D175  D(8,9,27,29)           19.9816         estimate D2E/DX2                !
 ! D176  D(8,9,27,30)          -50.5155         estimate D2E/DX2                !
 ! D177  D(10,9,27,15)        -171.7758         estimate D2E/DX2                !
 ! D178  D(10,9,27,28)         -11.2628         estimate D2E/DX2                !
 ! D179  D(10,9,27,29)         100.3182         estimate D2E/DX2                !
 ! D180  D(10,9,27,30)          29.8211         estimate D2E/DX2                !
 ! D181  D(9,10,13,8)            3.7133         estimate D2E/DX2                !
 ! D182  D(9,10,13,16)         -66.9157         estimate D2E/DX2                !
 ! D183  D(9,10,13,17)          82.4853         estimate D2E/DX2                !
 ! D184  D(9,10,13,36)         135.9084         estimate D2E/DX2                !
 ! D185  D(9,10,13,37)        -170.3038         estimate D2E/DX2                !
 ! D186  D(9,10,13,39)        -146.7414         estimate D2E/DX2                !
 ! D187  D(24,10,13,8)         -90.8544         estimate D2E/DX2                !
 ! D188  D(24,10,13,16)       -161.4834         estimate D2E/DX2                !
 ! D189  D(24,10,13,17)        -12.0824         estimate D2E/DX2                !
 ! D190  D(24,10,13,36)         41.3407         estimate D2E/DX2                !
 ! D191  D(24,10,13,37)         95.1285         estimate D2E/DX2                !
 ! D192  D(24,10,13,39)        118.6909         estimate D2E/DX2                !
 ! D193  D(9,10,24,17)         -87.7657         estimate D2E/DX2                !
 ! D194  D(9,10,24,25)         174.8391         estimate D2E/DX2                !
 ! D195  D(9,10,24,26)          -7.0043         estimate D2E/DX2                !
 ! D196  D(9,10,24,28)          86.3307         estimate D2E/DX2                !
 ! D197  D(9,10,24,30)          71.9523         estimate D2E/DX2                !
 ! D198  D(9,10,24,33)        -176.1859         estimate D2E/DX2                !
 ! D199  D(9,10,24,36)        -134.8505         estimate D2E/DX2                !
 ! D200  D(13,10,24,17)         10.9362         estimate D2E/DX2                !
 ! D201  D(13,10,24,25)        -86.459          estimate D2E/DX2                !
 ! D202  D(13,10,24,26)         91.6976         estimate D2E/DX2                !
 ! D203  D(13,10,24,28)       -174.9674         estimate D2E/DX2                !
 ! D204  D(13,10,24,30)        170.6542         estimate D2E/DX2                !
 ! D205  D(13,10,24,33)        -77.484          estimate D2E/DX2                !
 ! D206  D(13,10,24,36)        -36.1486         estimate D2E/DX2                !
 ! D207  D(9,11,12,27)         -80.2198         estimate D2E/DX2                !
 ! D208  D(2,12,21,22)        -169.4295         estimate D2E/DX2                !
 ! D209  D(2,12,21,23)          14.8411         estimate D2E/DX2                !
 ! D210  D(9,12,21,22)         140.5242         estimate D2E/DX2                !
 ! D211  D(9,12,21,23)         -35.2052         estimate D2E/DX2                !
 ! D212  D(11,12,21,22)         71.9007         estimate D2E/DX2                !
 ! D213  D(11,12,21,23)       -103.8287         estimate D2E/DX2                !
 ! D214  D(15,12,21,22)        -69.2519         estimate D2E/DX2                !
 ! D215  D(15,12,21,23)        115.0187         estimate D2E/DX2                !
 ! D216  D(1,12,27,26)          38.808          estimate D2E/DX2                !
 ! D217  D(1,12,27,28)         -73.4851         estimate D2E/DX2                !
 ! D218  D(1,12,27,29)         143.7825         estimate D2E/DX2                !
 ! D219  D(2,12,27,26)          -7.5674         estimate D2E/DX2                !
 ! D220  D(2,12,27,28)        -119.8604         estimate D2E/DX2                !
 ! D221  D(2,12,27,29)          97.4071         estimate D2E/DX2                !
 ! D222  D(5,12,27,26)         108.9732         estimate D2E/DX2                !
 ! D223  D(5,12,27,28)          -3.3198         estimate D2E/DX2                !
 ! D224  D(5,12,27,29)        -146.0523         estimate D2E/DX2                !
 ! D225  D(14,12,27,26)       -101.6907         estimate D2E/DX2                !
 ! D226  D(14,12,27,28)        146.0163         estimate D2E/DX2                !
 ! D227  D(14,12,27,29)          3.2838         estimate D2E/DX2                !
 ! D228  D(8,13,16,18)         -68.8083         estimate D2E/DX2                !
 ! D229  D(10,13,16,18)          0.8029         estimate D2E/DX2                !
 ! D230  D(17,13,16,18)       -148.9602         estimate D2E/DX2                !
 ! D231  D(36,13,16,18)        157.8466         estimate D2E/DX2                !
 ! D232  D(37,13,16,18)        101.7107         estimate D2E/DX2                !
 ! D233  D(8,13,17,24)          93.4546         estimate D2E/DX2                !
 ! D234  D(10,13,17,24)         11.9247         estimate D2E/DX2                !
 ! D235  D(16,13,17,24)       -177.1878         estimate D2E/DX2                !
 ! D236  D(37,13,17,24)        -74.9395         estimate D2E/DX2                !
 ! D237  D(39,13,17,24)       -128.1199         estimate D2E/DX2                !
 ! D238  D(8,13,36,24)          52.1868         estimate D2E/DX2                !
 ! D239  D(8,13,36,25)          94.5965         estimate D2E/DX2                !
 ! D240  D(8,13,36,33)          48.6681         estimate D2E/DX2                !
 ! D241  D(8,13,36,35)          -4.7201         estimate D2E/DX2                !
 ! D242  D(8,13,36,38)        -116.6522         estimate D2E/DX2                !
 ! D243  D(10,13,36,24)        -35.6348         estimate D2E/DX2                !
 ! D244  D(10,13,36,25)          6.775          estimate D2E/DX2                !
 ! D245  D(10,13,36,33)        -39.1534         estimate D2E/DX2                !
 ! D246  D(10,13,36,35)        -92.5416         estimate D2E/DX2                !
 ! D247  D(10,13,36,38)        155.5263         estimate D2E/DX2                !
 ! D248  D(16,13,36,24)        151.3587         estimate D2E/DX2                !
 ! D249  D(16,13,36,25)       -166.2316         estimate D2E/DX2                !
 ! D250  D(16,13,36,33)        147.8401         estimate D2E/DX2                !
 ! D251  D(16,13,36,35)         94.4518         estimate D2E/DX2                !
 ! D252  D(16,13,36,38)        -17.4803         estimate D2E/DX2                !
 ! D253  D(39,13,36,24)       -163.8513         estimate D2E/DX2                !
 ! D254  D(39,13,36,25)       -121.4415         estimate D2E/DX2                !
 ! D255  D(39,13,36,33)       -167.3699         estimate D2E/DX2                !
 ! D256  D(39,13,36,35)        139.2419         estimate D2E/DX2                !
 ! D257  D(39,13,36,38)         27.3098         estimate D2E/DX2                !
 ! D258  D(8,13,39,40)         -59.9129         estimate D2E/DX2                !
 ! D259  D(8,13,39,41)          55.6964         estimate D2E/DX2                !
 ! D260  D(8,13,39,42)         -10.6294         estimate D2E/DX2                !
 ! D261  D(10,13,39,40)         72.8244         estimate D2E/DX2                !
 ! D262  D(10,13,39,41)       -171.5662         estimate D2E/DX2                !
 ! D263  D(10,13,39,42)        122.1079         estimate D2E/DX2                !
 ! D264  D(17,13,39,40)       -161.3413         estimate D2E/DX2                !
 ! D265  D(17,13,39,41)        -45.732          estimate D2E/DX2                !
 ! D266  D(17,13,39,42)       -112.0579         estimate D2E/DX2                !
 ! D267  D(36,13,39,40)        160.6043         estimate D2E/DX2                !
 ! D268  D(36,13,39,41)        -83.7863         estimate D2E/DX2                !
 ! D269  D(36,13,39,42)       -150.1122         estimate D2E/DX2                !
 ! D270  D(13,16,18,6)          37.9347         estimate D2E/DX2                !
 ! D271  D(13,16,18,7)         -16.3904         estimate D2E/DX2                !
 ! D272  D(13,16,18,19)       -172.9599         estimate D2E/DX2                !
 ! D273  D(13,16,18,20)         94.3016         estimate D2E/DX2                !
 ! D274  D(13,16,18,40)        -83.78           estimate D2E/DX2                !
 ! D275  D(13,16,18,42)       -134.0413         estimate D2E/DX2                !
 ! D276  D(39,16,18,6)         112.0088         estimate D2E/DX2                !
 ! D277  D(39,16,18,7)          57.6837         estimate D2E/DX2                !
 ! D278  D(39,16,18,19)        -98.8858         estimate D2E/DX2                !
 ! D279  D(39,16,18,20)        168.3757         estimate D2E/DX2                !
 ! D280  D(39,16,18,40)         -9.7059         estimate D2E/DX2                !
 ! D281  D(39,16,18,42)        -59.9672         estimate D2E/DX2                !
 ! D282  D(18,16,39,37)        -93.788          estimate D2E/DX2                !
 ! D283  D(18,16,39,40)         12.159          estimate D2E/DX2                !
 ! D284  D(18,16,39,41)        112.4745         estimate D2E/DX2                !
 ! D285  D(18,16,39,42)         58.4178         estimate D2E/DX2                !
 ! D286  D(13,17,24,10)        -11.0415         estimate D2E/DX2                !
 ! D287  D(13,17,24,25)         76.5263         estimate D2E/DX2                !
 ! D288  D(13,17,24,26)        -95.7732         estimate D2E/DX2                !
 ! D289  D(13,17,24,30)       -167.9343         estimate D2E/DX2                !
 ! D290  D(13,17,24,32)       -179.8066         estimate D2E/DX2                !
 ! D291  D(13,17,24,33)        127.5061         estimate D2E/DX2                !
 ! D292  D(6,18,40,39)         -89.2466         estimate D2E/DX2                !
 ! D293  D(7,18,40,39)         -96.3308         estimate D2E/DX2                !
 ! D294  D(16,18,40,39)         11.4062         estimate D2E/DX2                !
 ! D295  D(19,18,40,39)        110.1839         estimate D2E/DX2                !
 ! D296  D(7,18,42,39)         -45.9554         estimate D2E/DX2                !
 ! D297  D(7,18,42,41)         -66.9783         estimate D2E/DX2                !
 ! D298  D(7,18,42,43)         179.4739         estimate D2E/DX2                !
 ! D299  D(7,18,42,44)         -22.0309         estimate D2E/DX2                !
 ! D300  D(7,18,42,45)          83.7615         estimate D2E/DX2                !
 ! D301  D(16,18,42,39)         46.656          estimate D2E/DX2                !
 ! D302  D(16,18,42,41)         25.6332         estimate D2E/DX2                !
 ! D303  D(16,18,42,43)        -87.9146         estimate D2E/DX2                !
 ! D304  D(16,18,42,44)         70.5806         estimate D2E/DX2                !
 ! D305  D(16,18,42,45)        176.373          estimate D2E/DX2                !
 ! D306  D(20,18,42,39)        140.1458         estimate D2E/DX2                !
 ! D307  D(20,18,42,41)        119.1229         estimate D2E/DX2                !
 ! D308  D(20,18,42,43)          5.5751         estimate D2E/DX2                !
 ! D309  D(20,18,42,44)        164.0703         estimate D2E/DX2                !
 ! D310  D(20,18,42,45)        -90.1373         estimate D2E/DX2                !
 ! D311  D(10,24,26,9)           6.8632         estimate D2E/DX2                !
 ! D312  D(10,24,26,27)         82.3137         estimate D2E/DX2                !
 ! D313  D(17,24,26,9)          98.6792         estimate D2E/DX2                !
 ! D314  D(17,24,26,27)        174.1297         estimate D2E/DX2                !
 ! D315  D(28,24,26,9)         -75.1569         estimate D2E/DX2                !
 ! D316  D(28,24,26,27)          0.2936         estimate D2E/DX2                !
 ! D317  D(30,24,26,9)        -122.6727         estimate D2E/DX2                !
 ! D318  D(30,24,26,27)        -47.2222         estimate D2E/DX2                !
 ! D319  D(32,24,26,9)        -172.5559         estimate D2E/DX2                !
 ! D320  D(32,24,26,27)        -97.1054         estimate D2E/DX2                !
 ! D321  D(33,24,26,9)         176.6487         estimate D2E/DX2                !
 ! D322  D(33,24,26,27)       -107.9008         estimate D2E/DX2                !
 ! D323  D(36,24,26,9)          88.8714         estimate D2E/DX2                !
 ! D324  D(36,24,26,27)        164.3219         estimate D2E/DX2                !
 ! D325  D(10,24,28,27)        -84.8122         estimate D2E/DX2                !
 ! D326  D(25,24,28,27)       -172.4947         estimate D2E/DX2                !
 ! D327  D(26,24,28,27)         -0.2631         estimate D2E/DX2                !
 ! D328  D(32,24,28,27)         83.7903         estimate D2E/DX2                !
 ! D329  D(33,24,28,27)        137.0962         estimate D2E/DX2                !
 ! D330  D(36,24,28,27)       -161.3531         estimate D2E/DX2                !
 ! D331  D(10,24,30,27)        -42.9224         estimate D2E/DX2                !
 ! D332  D(10,24,30,29)        -75.2295         estimate D2E/DX2                !
 ! D333  D(10,24,30,31)        103.0233         estimate D2E/DX2                !
 ! D334  D(17,24,30,27)        106.9705         estimate D2E/DX2                !
 ! D335  D(17,24,30,29)         74.6635         estimate D2E/DX2                !
 ! D336  D(17,24,30,31)       -107.0837         estimate D2E/DX2                !
 ! D337  D(25,24,30,27)       -139.0262         estimate D2E/DX2                !
 ! D338  D(25,24,30,29)       -171.3332         estimate D2E/DX2                !
 ! D339  D(25,24,30,31)          6.9196         estimate D2E/DX2                !
 ! D340  D(26,24,30,27)         36.2133         estimate D2E/DX2                !
 ! D341  D(26,24,30,29)          3.9063         estimate D2E/DX2                !
 ! D342  D(26,24,30,31)       -177.8409         estimate D2E/DX2                !
 ! D343  D(33,24,30,27)        176.7796         estimate D2E/DX2                !
 ! D344  D(33,24,30,29)        144.4726         estimate D2E/DX2                !
 ! D345  D(33,24,30,31)        -37.2746         estimate D2E/DX2                !
 ! D346  D(36,24,30,27)        178.4858         estimate D2E/DX2                !
 ! D347  D(36,24,30,29)        146.1788         estimate D2E/DX2                !
 ! D348  D(36,24,30,31)        -35.5684         estimate D2E/DX2                !
 ! D349  D(10,24,33,34)        -92.5615         estimate D2E/DX2                !
 ! D350  D(10,24,33,35)         84.9032         estimate D2E/DX2                !
 ! D351  D(17,24,33,34)        177.9686         estimate D2E/DX2                !
 ! D352  D(17,24,33,35)         -4.5667         estimate D2E/DX2                !
 ! D353  D(26,24,33,34)        102.9165         estimate D2E/DX2                !
 ! D354  D(26,24,33,35)        -79.6188         estimate D2E/DX2                !
 ! D355  D(28,24,33,34)         -2.0976         estimate D2E/DX2                !
 ! D356  D(28,24,33,35)        175.3671         estimate D2E/DX2                !
 ! D357  D(30,24,33,34)         38.4198         estimate D2E/DX2                !
 ! D358  D(30,24,33,35)       -144.1155         estimate D2E/DX2                !
 ! D359  D(10,24,36,13)         33.0146         estimate D2E/DX2                !
 ! D360  D(10,24,36,35)       -177.3404         estimate D2E/DX2                !
 ! D361  D(10,24,36,37)        -16.767          estimate D2E/DX2                !
 ! D362  D(10,24,36,38)         77.0805         estimate D2E/DX2                !
 ! D363  D(26,24,36,13)        -48.1235         estimate D2E/DX2                !
 ! D364  D(26,24,36,35)        101.5215         estimate D2E/DX2                !
 ! D365  D(26,24,36,37)        -97.9052         estimate D2E/DX2                !
 ! D366  D(26,24,36,38)         -4.0577         estimate D2E/DX2                !
 ! D367  D(28,24,36,13)        107.8812         estimate D2E/DX2                !
 ! D368  D(28,24,36,35)       -102.4738         estimate D2E/DX2                !
 ! D369  D(28,24,36,37)         58.0995         estimate D2E/DX2                !
 ! D370  D(28,24,36,38)        151.947          estimate D2E/DX2                !
 ! D371  D(30,24,36,13)       -178.2001         estimate D2E/DX2                !
 ! D372  D(30,24,36,35)        -28.5551         estimate D2E/DX2                !
 ! D373  D(30,24,36,37)        132.0183         estimate D2E/DX2                !
 ! D374  D(30,24,36,38)       -134.1342         estimate D2E/DX2                !
 ! D375  D(32,24,36,13)       -138.3092         estimate D2E/DX2                !
 ! D376  D(32,24,36,35)         11.3358         estimate D2E/DX2                !
 ! D377  D(32,24,36,37)        171.9091         estimate D2E/DX2                !
 ! D378  D(32,24,36,38)        -94.2434         estimate D2E/DX2                !
 ! D379  D(24,25,33,36)        -79.8629         estimate D2E/DX2                !
 ! D380  D(24,26,27,11)        -84.5214         estimate D2E/DX2                !
 ! D381  D(24,26,27,12)       -137.3322         estimate D2E/DX2                !
 ! D382  D(24,26,27,15)        170.949          estimate D2E/DX2                !
 ! D383  D(24,26,27,28)         -0.2976         estimate D2E/DX2                !
 ! D384  D(24,26,27,29)         91.2675         estimate D2E/DX2                !
 ! D385  D(24,26,27,30)         46.5362         estimate D2E/DX2                !
 ! D386  D(9,27,28,24)          58.8393         estimate D2E/DX2                !
 ! D387  D(11,27,28,24)        108.2771         estimate D2E/DX2                !
 ! D388  D(12,27,28,24)        111.0439         estimate D2E/DX2                !
 ! D389  D(15,27,28,24)       -162.5591         estimate D2E/DX2                !
 ! D390  D(26,27,28,24)          0.3071         estimate D2E/DX2                !
 ! D391  D(29,27,28,24)        -96.7807         estimate D2E/DX2                !
 ! D392  D(9,27,30,24)           1.5401         estimate D2E/DX2                !
 ! D393  D(9,27,30,31)        -139.8631         estimate D2E/DX2                !
 ! D394  D(9,27,30,32)          45.0704         estimate D2E/DX2                !
 ! D395  D(11,27,30,24)         72.2717         estimate D2E/DX2                !
 ! D396  D(11,27,30,31)        -69.1316         estimate D2E/DX2                !
 ! D397  D(11,27,30,32)        115.802          estimate D2E/DX2                !
 ! D398  D(15,27,30,24)       -153.1623         estimate D2E/DX2                !
 ! D399  D(15,27,30,31)         65.4345         estimate D2E/DX2                !
 ! D400  D(15,27,30,32)       -109.632          estimate D2E/DX2                !
 ! D401  D(26,27,30,24)        -42.4428         estimate D2E/DX2                !
 ! D402  D(26,27,30,31)        176.154          estimate D2E/DX2                !
 ! D403  D(26,27,30,32)          1.0875         estimate D2E/DX2                !
 ! D404  D(27,30,32,33)       -118.6694         estimate D2E/DX2                !
 ! D405  D(28,30,32,33)        -64.2873         estimate D2E/DX2                !
 ! D406  D(29,30,32,33)       -174.6734         estimate D2E/DX2                !
 ! D407  D(31,30,32,33)         64.5703         estimate D2E/DX2                !
 ! D408  D(30,32,33,25)         64.7111         estimate D2E/DX2                !
 ! D409  D(30,32,33,34)        -56.7184         estimate D2E/DX2                !
 ! D410  D(30,32,33,35)        178.4877         estimate D2E/DX2                !
 ! D411  D(30,32,33,36)        117.1335         estimate D2E/DX2                !
 ! D412  D(32,33,36,13)        -36.8443         estimate D2E/DX2                !
 ! D413  D(32,33,36,17)          6.9333         estimate D2E/DX2                !
 ! D414  D(32,33,36,37)       -106.3899         estimate D2E/DX2                !
 ! D415  D(32,33,36,38)        122.5186         estimate D2E/DX2                !
 ! D416  D(34,33,36,13)        133.4255         estimate D2E/DX2                !
 ! D417  D(34,33,36,17)        177.2031         estimate D2E/DX2                !
 ! D418  D(34,33,36,37)         63.88           estimate D2E/DX2                !
 ! D419  D(34,33,36,38)        -67.2116         estimate D2E/DX2                !
 ! D420  D(17,36,37,39)         78.9784         estimate D2E/DX2                !
 ! D421  D(24,36,37,39)        133.138          estimate D2E/DX2                !
 ! D422  D(25,36,37,39)       -176.9389         estimate D2E/DX2                !
 ! D423  D(33,36,37,39)       -178.6719         estimate D2E/DX2                !
 ! D424  D(35,36,37,39)       -123.5163         estimate D2E/DX2                !
 ! D425  D(38,36,37,39)        -30.9704         estimate D2E/DX2                !
 ! D426  D(36,37,39,16)        -60.0397         estimate D2E/DX2                !
 ! D427  D(36,37,39,40)       -153.9841         estimate D2E/DX2                !
 ! D428  D(36,37,39,41)         61.0633         estimate D2E/DX2                !
 ! D429  D(36,37,39,42)       -133.3076         estimate D2E/DX2                !
 ! D430  D(13,39,40,18)         44.0081         estimate D2E/DX2                !
 ! D431  D(16,39,40,18)        -10.8843         estimate D2E/DX2                !
 ! D432  D(37,39,40,18)         97.211          estimate D2E/DX2                !
 ! D433  D(41,39,40,18)       -100.3441         estimate D2E/DX2                !
 ! D434  D(13,39,41,44)       -133.0279         estimate D2E/DX2                !
 ! D435  D(16,39,41,44)       -107.3811         estimate D2E/DX2                !
 ! D436  D(37,39,41,44)        127.276          estimate D2E/DX2                !
 ! D437  D(40,39,41,44)        -18.4985         estimate D2E/DX2                !
 ! D438  D(13,39,42,18)        -15.6834         estimate D2E/DX2                !
 ! D439  D(13,39,42,19)         -7.7596         estimate D2E/DX2                !
 ! D440  D(13,39,42,43)        101.0146         estimate D2E/DX2                !
 ! D441  D(13,39,42,44)        177.0834         estimate D2E/DX2                !
 ! D442  D(13,39,42,45)       -104.2506         estimate D2E/DX2                !
 ! D443  D(16,39,42,18)        -46.2257         estimate D2E/DX2                !
 ! D444  D(16,39,42,19)        -38.302          estimate D2E/DX2                !
 ! D445  D(16,39,42,43)         70.4723         estimate D2E/DX2                !
 ! D446  D(16,39,42,44)        146.5411         estimate D2E/DX2                !
 ! D447  D(16,39,42,45)       -134.7929         estimate D2E/DX2                !
 ! D448  D(37,39,42,18)         36.9464         estimate D2E/DX2                !
 ! D449  D(37,39,42,19)         44.8701         estimate D2E/DX2                !
 ! D450  D(37,39,42,43)        153.6443         estimate D2E/DX2                !
 ! D451  D(37,39,42,44)       -130.2868         estimate D2E/DX2                !
 ! D452  D(37,39,42,45)        -51.6208         estimate D2E/DX2                !
 ! D453  D(39,41,44,47)       -118.5044         estimate D2E/DX2                !
 ! D454  D(44,41,47,42)          0.0            estimate D2E/DX2                !
 --------------------------------------------------------------------------------
 Trust Radius=3.00D-01 FncErr=1.00D-07 GrdErr=1.00D-06 EigMax=2.50D+02 EigMin=1.00D-04
 Number of steps in this run=    288 maximum allowed number of steps=    288.
 GradGradGradGradGradGradGradGradGradGradGradGradGradGradGradGradGradGrad

                          Input orientation:                          
 ---------------------------------------------------------------------
 Center     Atomic      Atomic             Coordinates (Angstroms)
 Number     Number       Type             X           Y           Z
 ---------------------------------------------------------------------
      1         42           0        0.336610    1.428796   12.232139
      2         16           0        1.287733    3.574383   12.485033
      3         16           0       -1.793169    2.108131   13.033109
      4         16           0       -0.355825    0.955793   10.018411
      5         16           0        2.231717   -0.155643   11.665750
      6         42           0       -1.950759    2.621264   10.764563
      7         16           0       -2.825823    2.139664    8.508131
      8         16           0       -1.113525    4.692712   10.401130
      9         42           0        0.819568    3.107273   10.129815
     10         16           0        0.255898    3.329314    7.664891
     11         16           0        2.747956    1.916373    9.222075
     12         42           0        3.017290    2.257243   11.578344
     13         42           0       -1.693751    4.712541    7.839146
     14         16           0        4.081587    1.914130   13.912673
     15         16           0        4.681817    3.894998   11.482875
     16         16           0       -4.086024    5.530981    8.372693
     17         16           0       -0.670648    6.847467    8.039972
     18         42           0       -4.528387    3.418537    9.332000
     19         16           0       -6.603494    3.651948    9.686945
     20         16           0       -4.134633    3.605990   11.497496
     21         42           0        2.664491    0.210898   13.903324
     22         16           0        3.423459   -1.486105   14.922934
[...]
 2534,0.00066238,0.00037818,-0.00048497,-0.00052400,-0.00006198,0.00070
 622,0.00013401,0.00010079,0.00009578,-0.00025081,-0.00042722,-0.000055
 74,0.00005158,-0.00008314,-0.00077134,-0.00000913,-0.00010437,0.000156
 10,0.00012738,0.00003625,0.00005591,0.00029581,0.00053042,-0.00002407,
 -0.00012932,-0.00017087,0.00007197,0.00331026,-0.00097191,0.00498942,0
 .00141867,0.00430474,-0.00244229,-0.00063791,-0.00038905,-0.00181430,-
 0.00020297,0.00076402,-0.00030413,0.00024496,-0.00057225,0.00027296,0.
 00006390,-0.00005126,0.00010766,0.00257480,0.00041348,-0.00053860,0.00
 003653,0.00006769,0.00001427,-0.00026860,-0.00004945,-0.00004015,-0.00
 011115,-0.00020692,-0.00049157,-0.00023637,-0.00008262,0.00037456,0.00
 007122,0.00001794,0.00019093,-0.00076452,-0.00004681,0.00000894,0.0003
 7687,0.00008653,-0.00035936,-0.00035630,0.00016068,0.00002493,-0.00022
 468,-0.00010959,0.00046357,0.00033367,0.00002690,-0.00037410,-0.000059
 62,0.00014120,0.00005450,0.00008383,-0.00014807,0.00022482,-0.00054695
 ,0.00064197,0.00070196,-0.00085290,-0.00060704,0.00026079,-0.00116562,
 -0.00341736,0.00365590,0.00035160,-0.00053297,-0.00280317,-0.01583967,
 -0.00719890,0.00611941,0.00195966,-0.05164371,-0.00123821,0.00190366,-
 0.01150056,-0.00765743,0.00524283,-0.00927697,0.00556805,0.46573994,0.
 97567397,-0.00031549,0.00009902,-0.00004066,-0.00013181,0.00001115,-0.
 00004769,-0.00003196,0.00002355,0.00016843,0.00016610,-0.00007242,-0.0
 0016390,0.00006166,-0.00002071,0.00002031,0.00025172,-0.00022193,-0.00
 024488,0.00011633,-0.00040483,-0.00048777,-0.00009792,0.00010617,-0.00
 010785,0.00058109,0.00025571,-0.00012564,-0.00019496,0.00011723,0.0001
 0868,0.00006187,-0.00001274,0.00003656,-0.00018309,-0.00026886,-0.0000
 6684,0.00027830,0.00025521,0.00000492,0.00000680,-0.00001743,0.0000401
 8,0.00001303,0.00004531,-0.00002508,0.00006369,0.00007979,-0.00008738,
 -0.00002896,-0.00006712,0.00005612,0.00122811,-0.00047155,0.00363654,-
 0.00545475,-0.00046946,-0.01248353,0.00007167,0.00081395,-0.00112298,-
 0.00012280,0.00015840,-0.00004505,0.00006401,-0.00014003,0.00006966,0.
 00006363,-0.00003687,0.00004089,0.00010223,0.00028143,-0.00041199,0.00
 002940,-0.00003007,-0.00000909,-0.00013434,-0.00002652,0.00001513,0.00
 014078,-0.00007115,-0.00008165,-0.00006086,-0.00003011,0.00009445,-0.0
 0001442,0.00002182,-0.00000503,-0.00013574,-0.00005089,0.00010558,0.00
 010157,0.00002373,-0.00008355,-0.00005414,0.00007349,0.00000770,0.0001
 0931,-0.00008264,0.00016553,0.00007433,0.00000124,-0.00007423,-0.00011
 721,0.00002310,-0.00000061,0.00082172,-0.00056742,0.00031474,-0.000260
 63,0.00028196,0.00009343,-0.00094860,0.00007595,0.00019871,0.00184728,
 -0.00038411,0.00057624,0.00239148,0.00112009,0.00145977,-0.00050881,0.
 00029720,0.00186990,-0.00245368,-0.01045062,-0.03323907,-0.00303779,-0
 .00333406,0.00267236,0.00514562,0.01725699,-0.00196936,0.05097299,0.09
 196656,0.08691849,0.00031423,-0.00010968,-0.00002362,0.00008932,-0.000
 01492,0.00002063,0.00005559,0.00011542,-0.00019566,-0.00002439,-0.0000
 7755,0.00026445,-0.00003789,0.00004524,-0.00000157,-0.00106141,-0.0002
 4010,-0.00016033,0.00026570,0.00036800,-0.00005769,0.00003277,0.000127
 08,-0.00004220,-0.00030522,-0.00021464,0.00029963,0.00021337,0.0001330
 0,-0.00049836,-0.00007994,-0.00006522,-0.00005145,0.00014753,0.0002607
 0,0.00002176,0.00030412,0.00008071,0.00012215,-0.00000578,0.00005857,-
 0.00010102,-0.00009048,-0.00002547,-0.00004935,-0.00014998,-0.00019274
 ,-0.00007326,0.00006675,0.00008417,-0.00011659,-0.00138714,0.00106134,
 -0.00017612,0.00279228,-0.00252718,0.00037585,0.00042224,-0.00008913,0
 .00018256,0.00014349,-0.00046758,0.00019568,-0.00015534,0.00035791,-0.
 00017056,-0.00004977,0.00003410,-0.00007477,-0.00163696,-0.00027939,0.
 00033182,0.00002061,0.00001296,-0.00001489,0.00018174,0.00002091,0.000
 03206,0.00006645,0.00010261,0.00033503,0.00014111,0.00005455,-0.000205
 27,-0.00005144,-0.00001992,-0.00013487,0.00050804,0.00006272,-0.000003
 68,-0.00025537,-0.00006003,0.00024010,0.00018576,-0.00009661,-0.000041
 12,0.00018367,0.00010067,-0.00029409,-0.00023986,-0.00001512,0.0002578
 5,0.00002173,-0.00014782,-0.00002108,0.00030963,0.00007607,0.00009839,
 -0.00008704,0.00002881,-0.00010705,0.00003819,0.00013344,-0.00010085,0
 .00004811,0.00219077,-0.00041448,-0.00018624,-0.00190400,-0.00203000,0
 .00427173,0.00042113,-0.00091226,-0.01817144,0.02550085,0.02754997,-0.
 59642965,0.43806896,0.31680028,-0.00613672,0.00138095,-0.00791283,-0.0
 0367990,-0.00331228,0.00097477,0.61444212,-0.00026124,0.00007404,0.000
 02706,-0.00007551,0.00001452,-0.00002367,0.00002176,-0.00008848,0.0001
 8816,0.00003596,0.00001156,-0.00019676,0.00003802,-0.00003305,0.000002
 18,0.00037159,0.00016371,0.00011574,-0.00008659,-0.00004239,-0.0000218
 8,-0.00004921,-0.00004048,0.00005857,0.00027624,0.00020415,-0.00018446
 ,-0.00010924,-0.00006166,0.00018117,0.00006199,0.00002959,0.00003735,-
 0.00012528,-0.00021422,-0.00003204,-0.00021608,-0.00014497,-0.00007681
 ,0.00000617,-0.00003931,0.00007033,0.00006348,0.00002603,0.00002959,-0
 .00004869,0.00011570,0.00003838,-0.00003311,-0.00005207,0.00009131,0.0
 0056191,-0.00104421,-0.00033298,-0.00254853,0.00236553,0.00007037,-0.0
 0009095,-0.00003879,0.00005143,-0.00010989,0.00031205,-0.00012690,0.00
 010586,-0.00024243,0.00011576,0.00004151,-0.00002824,0.00005245,0.0009
 2380,0.00014977,-0.00016256,-0.00000769,-0.00001975,0.00000059,-0.0001
 2820,-0.00001286,-0.00001493,-0.00004023,-0.00006035,-0.00020957,-0.00
 008444,-0.00003693,0.00010136,0.00002650,0.00000951,0.00007657,-0.0003
 2087,-0.00004185,0.00004145,0.00017439,0.00003847,-0.00016343,-0.00010
 016,0.00006084,0.00002842,-0.00012674,-0.00005411,0.00017128,0.0001601
 0,0.00000775,-0.00016989,0.00000144,0.00009484,0.00001458,-0.00033634,
 0.00001991,-0.00006760,-0.00001791,-0.00028473,0.00012110,0.00013049,0
 .00004410,-0.00006014,-0.00179189,0.00022971,0.00000629,-0.00107378,-0
 .00231659,0.00113588,-0.00042713,0.00013950,-0.00006243,0.03045348,-0.
 00373921,-0.02038800,0.43676888,-0.37695407,-0.24827020,0.00341443,-0.
 00134800,0.00776154,0.00133685,0.00552113,0.00024569,-0.46327481,0.380
 14185,-0.00013949,0.00004352,0.00001054,-0.00003751,0.00000802,-0.0000
 0843,-0.00000370,-0.00004756,0.00010173,-0.00000231,0.00003093,-0.0001
 3873,0.00001440,-0.00002204,-0.00000032,0.00029605,0.00009690,0.000179
 41,-0.00010929,-0.00012545,-0.00033672,-0.00001970,-0.00007256,0.00007
 202,0.00013625,0.00011279,-0.00013798,-0.00007245,-0.00006402,0.000171
 33,0.00003941,0.00003171,0.00002501,-0.00006907,-0.00012676,-0.0000111
 5,-0.00018429,-0.00012854,-0.00000285,0.00000219,-0.00003201,0.0000532
 2,0.00005048,0.00001068,0.00003072,0.00007300,-0.00000048,0.00004142,-
 0.00002473,-0.00002626,0.00005985,0.00045858,-0.00030504,0.00060042,-0
 .00020044,-0.00014555,0.00051315,-0.00009106,0.00009508,-0.00007291,-0
 .00006325,0.00023936,-0.00010125,0.00007818,-0.00018062,0.00008546,0.0
 0001871,-0.00001639,0.00003936,0.00078473,0.00008005,-0.00008702,-0.00
 001245,-0.00000093,0.00000323,-0.00008896,-0.00000611,-0.00001418,-0.0
 0006394,-0.00003543,-0.00017039,-0.00005381,-0.00002580,0.00007080,0.0
 0002577,0.00000829,0.00006646,-0.00024703,-0.00003159,0.00000314,0.000
 12363,0.00002959,-0.00011716,-0.00007141,0.00003958,0.00002721,-0.0001
 1708,-0.00003830,0.00011873,0.00012299,0.00000820,-0.00013123,0.000017
 26,0.00006927,0.00001233,-0.00029111,-0.00005025,-0.00010518,0.0001059
 6,0.00004011,0.00002877,0.00000303,0.00010287,0.00006787,0.00029885,-0
 .00113610,-0.00012829,-0.00070723,0.00071044,-0.00139171,-0.00290295,-
 0.00063277,0.00006194,0.02511434,-0.01672925,0.00223812,0.31808773,-0.
 24931362,-0.22158653,0.00088294,0.00168446,0.00984295,0.00081099,0.003
 30612,-0.00046868,-0.33970343,0.26487816,0.21530760,0.00025639,-0.0000
 8981,-0.00002996,0.00006785,-0.00000958,0.00001657,-0.00000925,0.00009
 241,-0.00020054,-0.00001864,-0.00006056,0.00015779,-0.00003048,0.00003
 664,0.00000368,-0.00018948,-0.00000450,0.00006543,-0.00008814,0.000334
 99,0.00044458,0.00008085,0.00004248,-0.00001159,-0.00031960,-0.0001727
 7,0.00019193,0.00014038,0.00010757,0.00000449,-0.00005256,-0.00002982,
 -0.00003344,0.00011077,0.00019827,0.00002581,-0.00019249,-0.00034574,-
 0.00025829,-0.00000473,0.00004179,-0.00006972,-0.00006029,-0.00002694,
 -0.00003261,-0.00000140,-0.00001344,0.00046005,0.00009497,0.00009435,-
 0.00011605,0.00194861,0.00098763,-0.00180039,-0.00190656,0.00077887,-0
 .00028521,0.00021728,-0.00025883,0.00018877,0.00012336,-0.00034019,0.0
 0012633,-0.00011303,0.00025965,-0.00012548,-0.00004977,0.00003249,-0.0
 0004742,-0.00102437,-0.00018510,0.00023695,0.00005058,0.00005311,-0.00
 002402,0.00013053,0.00000353,0.00001222,0.00004349,0.00006689,0.000195
 57,0.00011524,0.00005026,-0.00009795,-0.00001844,-0.00001061,-0.000077
 03,0.00035584,0.00005005,-0.00009208,-0.00019914,-0.00004517,0.0001942
 6,0.00012588,-0.00008570,-0.00002887,0.00013915,0.00004908,-0.00024481
 ,-0.00020207,-0.00001091,0.00021688,0.00003009,-0.00008327,-0.00002510
 ,0.00006777,0.00001558,-0.00015279,0.00013935,0.00017706,0.00036620,0.
 00007608,0.00008961,0.00027056,0.00010718,-0.00166687,-0.00127978,0.00
 077403,0.00037449,0.00116786,-0.00061501,-0.00012762,0.00025943,0.0040
 5375,0.00040049,-0.02473189,-0.00660115,0.00288231,-0.00003013,-0.3113
 3289,0.06352640,-0.46448563,-0.00400606,-0.00470240,-0.00171085,0.0033
 1852,-0.00236234,-0.00151865,0.31247657,-0.00011031,0.00002413,0.00000
 633,-0.00003423,0.00000646,-0.00001329,0.00001497,-0.00001881,0.000062
 39,0.00004541,-0.00001222,-0.00005917,0.00001766,-0.00000615,0.0000027
 6,0.00001905,-0.00010446,0.00010962,0.00025295,-0.00003891,-0.00007118
 ,-0.00004232,0.00001680,-0.00000756,0.00016190,0.00010644,-0.00006747,
 -0.00003448,-0.00000380,0.00001894,0.00002344,-0.00000534,0.00001820,-
 0.00004945,-0.00008763,-0.00001861,0.00006987,0.00010213,-0.00011337,0
 .00000309,-0.00000775,0.00001473,0.00000512,0.00001610,-0.00000527,-0.
 00012329,0.00028970,0.00000881,-0.00001466,-0.00003469,0.00002557,-0.0
 0198762,-0.00090524,0.00053242,0.00098304,-0.00153262,0.00054313,0.000
 21722,0.00014153,-0.00020893,-0.00003801,0.00005637,-0.00001598,0.0000
 2162,-0.00004773,0.00002362,0.00001878,-0.00001213,0.00001148,0.000050
 37,0.00009724,-0.00011488,-0.00000940,-0.00002571,0.00000862,-0.000033
 31,-0.00000749,0.00000384,0.00003060,-0.00003252,-0.00002499,-0.000029
 38,-0.00001573,0.00002288,-0.00000334,0.00000208,-0.00000011,-0.000052
 87,-0.00000324,0.00005150,0.00004090,0.00000618,-0.00003705,-0.0000212
 2,0.00001399,-0.00000525,0.00001490,-0.00001354,0.00006936,0.00003112,
 -0.00000296,-0.00003438,-0.00004445,0.00002317,-0.00001010,0.00025067,
 -0.00008239,0.00005093,-0.00005382,0.00002064,0.00017301,-0.00017870,0
 .00004903,0.00002289,0.00025691,0.00051230,-0.00004241,-0.00077497,-0.
 00020055,-0.00043714,0.00071266,0.00030995,-0.00095850,-0.00015924,0.0
 1540786,0.00445592,0.00123108,-0.00037635,0.00303633,0.06251521,-0.051
 23964,0.10194785,0.00163108,0.00295931,-0.00244189,-0.00064546,0.00054
 837,-0.00025110,-0.06373292,0.03500972,0.00042127,-0.00014419,-0.00004
 720,0.00012293,-0.00001561,0.00003104,0.00001382,0.00013936,-0.0002711
 0,-0.00010390,-0.00005546,0.00025460,-0.00005835,0.00005486,-0.0000017
 5,-0.00080816,0.00007200,0.00024913,-0.00006216,0.00019966,-0.00019033
 ,0.00011435,0.00002736,0.00003059,-0.00053053,-0.00026804,0.00033047,0
 .00031808,0.00012003,-0.00026571,-0.00008893,-0.00005253,-0.00005737,0
 .00018900,0.00032785,0.00004366,-0.00029206,-0.00020458,0.00007333,-0.
 00000858,0.00006038,-0.00010652,-0.00008841,-0.00004461,-0.00004221,0.
 00036370,-0.00025335,0.00040819,0.00016697,0.00016505,-0.00015762,0.00
 209014,0.00130938,-0.00086020,0.00064592,-0.00004132,0.00219431,0.0002
 8293,-0.00045810,0.00029731,0.00020198,-0.00052289,0.00019916,-0.00017
 698,0.00040587,-0.00019654,-0.00008120,0.00004843,-0.00007278,-0.00177
 700,-0.00038462,0.00048562,0.00008433,0.00008686,-0.00004964,0.0002118
 1,0.00001124,0.00002695,0.00001285,0.00013364,0.00032037,0.00021906,0.
 00007941,-0.00022884,-0.00003389,-0.00001888,-0.00013172,0.00058447,0.
 00007576,-0.00012731,-0.00032459,-0.00007176,0.00031419,0.00025056,-0.
 00014627,-0.00002885,0.00018396,0.00007365,-0.00045176,-0.00032013,-0.
 00001338,0.00035266,0.00009718,-0.00014621,-0.00001717,-0.00027542,0.0
 0002123,-0.00018920,0.00021034,0.00023910,0.00039989,0.00028422,-0.000
 04072,0.00026211,-0.00209787,-0.00003273,-0.00066512,0.00006538,0.0004
 3109,0.00058804,0.00172677,-0.00037557,-0.00087270,-0.02638034,0.00123
 067,-0.03843417,-0.00880099,0.00791099,0.00968124,-0.46387292,0.102055
 29,-0.81847321,-0.00262512,-0.00565248,-0.00178234,0.00538722,-0.00465
 279,-0.00454404,0.49228423,-0.10671279,0.85108129,0.00019770,-0.000081
 89,-0.00003747,0.00006960,-0.00000244,0.00002146,0.00001191,0.00010481
 ,-0.00020943,-0.00000807,-0.00000617,0.00012461,-0.00003165,0.00003720
 ,-0.00000132,-0.00045636,-0.00029448,-0.00003818,0.00052544,0.00004705
 ,0.00018273,0.00005498,0.00004892,-0.00007743,-0.00031039,-0.00017876,
 0.00013180,0.00016338,0.00005874,-0.00014586,-0.00006365,-0.00001641,-
 0.00003470,0.00011013,0.00018289,0.00003159,-0.00011354,-0.00005338,0.
 00011890,0.00000233,0.00004240,-0.00006466,-0.00005592,-0.00001907,-0.
 00002752,0.00002342,0.00009768,-0.00001249,0.00006294,0.00006189,-0.00
 004542,-0.00199780,-0.00022093,-0.00158450,-0.00018206,-0.00127874,0.0
 0160024,0.00021374,0.00005264,0.00028270,0.00009103,-0.00031062,0.0001
 2161,-0.00010055,0.00023395,-0.00011211,-0.00002962,0.00002259,-0.0000
 4384,-0.00075909,-0.00009558,0.00006515,0.00003259,0.00002580,-0.00000
 767,0.00010385,0.00001220,0.00000670,0.00007291,0.00004243,0.00017196,
 0.00007092,0.00002852,-0.00005701,-0.00001719,-0.00000277,-0.00005965,
 0.00027274,0.00002736,-0.00006029,-0.00015049,-0.00003295,0.00014230,0
 .00008462,-0.00003488,-0.00001664,0.00013887,0.00001832,-0.00016259,-0
 .00014210,-0.00000820,0.00015603,0.00000358,-0.00004739,-0.00000617,0.
 00032751,0.00002836,-0.00008531,0.00014254,0.00038627,-0.00001650,0.00
 013052,-0.00020251,0.00010786,-0.00075868,-0.00186011,0.00049749,0.004
 22814,-0.00014865,-0.00030841,-0.00042982,0.00224209,-0.00059338,0.001
 38017,-0.02376705,-0.00494805,-0.00321921,0.00113889,0.00082193,-0.003
 59733,0.00028637,-0.00129566,-0.27471282,-0.45625548,-0.04974067,0.001
 63717,-0.00112803,-0.00075010,0.00199104,-0.00044615,0.00227409,0.2749
 9258,0.00029471,-0.00013965,-0.00005470,0.00010475,-0.00000626,0.00003
 502,0.00009429,0.00012299,-0.00027263,0.00000948,-0.00002917,0.0002576
 2,-0.00004061,0.00006119,0.00000201,-0.00110361,-0.00038746,-0.0000733
 9,0.00024963,0.00048920,0.00018315,0.00010553,0.00011799,-0.00006888,-
 0.00048232,-0.00025039,0.00027158,0.00027779,0.00006969,-0.00030047,-0
 .00009071,-0.00005228,-0.00005587,0.00016448,0.00027753,0.00004216,-0.
 00008463,0.00001034,0.00019456,0.00000750,0.00007575,-0.00011207,-0.00
 009672,-0.00002188,-0.00005488,0.00019817,0.00000867,0.00012851,0.0001
 2952,0.00009307,-0.00006594,-0.00256003,0.00035349,-0.00281861,-0.0001
 3484,-0.00236963,0.00134992,0.00034440,0.00013380,0.00075131,0.0001382
 2,-0.00055374,0.00021976,-0.00017554,0.00041135,-0.00019636,-0.0000395
 3,0.00003474,-0.00007532,-0.00164752,-0.00017277,0.00018880,0.00001910
 ,-0.00000197,-0.00000656,0.00018536,0.00001743,0.00002126,0.00012635,0
 .00009500,0.00032568,0.00014216,0.00004679,-0.00016721,-0.00004149,-0.
 00000917,-0.00012885,0.00051031,0.00004679,-0.00004083,-0.00026112,-0.
 00006226,0.00025172,0.00019509,-0.00009469,-0.00002908,0.00022887,0.00
 005763,-0.00028824,-0.00025175,-0.00002170,0.00027507,0.00001092,-0.00
 008322,-0.00003316,0.00039520,-0.00001449,-0.00004699,0.00007126,0.000
 17427,-0.00000244,0.00015173,0.00007062,-0.00009000,0.00104030,-0.0009
 3191,-0.00106626,0.00207097,0.00005462,0.00068651,0.00291393,-0.000457
 95,0.00117066,-0.02714258,-0.02583717,-0.00717730,-0.00312945,0.006133
 70,0.00379532,-0.00575234,0.00128120,-0.00664439,-0.45492759,-0.903369
 48,-0.09396132,0.00289800,-0.00338389,-0.00208160,0.00361906,-0.000901
 89,0.00502971,0.48126529,0.92891518,0.00011130,-0.00003567,0.00001352,
 0.00004695,-0.00000429,0.00001664,0.00002207,-0.00000096,-0.00006141,-
 0.00003754,0.00001167,0.00006185,-0.00002311,0.00001021,-0.00000626,-0
 .00023952,-0.00002295,0.00009572,0.00012226,0.00014622,0.00016090,0.00
 003470,-0.00001871,0.00001873,-0.00018463,-0.00009477,0.00004764,0.000
 07067,-0.00001646,-0.00003105,-0.00002732,0.00000185,-0.00001542,0.000
 06748,0.00010023,0.00002070,-0.00005569,-0.00009518,-0.00002596,-0.000
 00158,0.00000956,-0.00001809,-0.00001041,-0.00001452,0.00000493,-0.000
 00871,-0.00001462,0.00002502,0.00000816,0.00002413,-0.00002276,-0.0013
 8151,0.00014683,-0.00147923,0.00095355,-0.00090251,0.00277008,0.000158
 88,-0.00021085,0.00042099,0.00004512,-0.00007941,0.00002606,-0.0000290
 7,0.00006527,-0.00003208,-0.00002078,0.00001257,-0.00001527,-0.0001254
 8,-0.00009339,0.00011949,-0.00000244,0.00001228,0.00000170,0.00005060,
 0.00001084,-0.00000358,-0.00003169,0.00002452,0.00004745,0.00002379,0.
 00000793,-0.00003823,0.00000156,-0.00000627,-0.00000586,0.00006758,0.0
 0001783,-0.00003354,-0.00004613,-0.00001070,0.00004000,0.00002845,-0.0
 0002244,-0.00000257,-0.00001607,0.00002761,-0.00006676,-0.00003619,-0.
 00000123,0.00003845,0.00003627,-0.00001352,-0.00000017,-0.00020799,0.0
 0015049,-0.00008808,0.00009570,-0.00004683,0.00001829,0.00026854,-0.00
 002804,-0.00004036,-0.00040456,0.00035815,-0.00023126,-0.00028991,-0.0
 0018585,-0.00012547,0.00025986,-0.00048907,-0.00060354,-0.00313111,-0.
 00397862,0.01174436,0.00001997,0.00166571,0.00043724,-0.00116492,-0.00
 268361,0.00011768,-0.04951988,-0.09440101,-0.04549948,0.00019823,-0.00
 049571,-0.00027806,0.00062065,0.00043027,0.00064122,0.05368391,0.10073
 304,0.03183579\\-0.00003012,0.00000198,-0.00000680,0.00000765,-0.00000
 062,0.00000627,-0.00000555,-0.00000481,0.00000032,0.00000464,0.0000088
 3,-0.00000764,0.00000722,0.00000318,0.00000021,0.00003957,-0.00001835,
 -0.00000555,-0.00000559,-0.00000175,0.00000325,0.00000754,0.00000448,0
 .00000234,-0.00001080,-0.00001761,0.00001860,-0.00000629,0.00001409,0.
 00000782,0.00001383,0.00000003,-0.00000203,-0.00001641,0.00000006,-0.0
 0003085,-0.00000418,-0.00000931,0.00000792,-0.00000593,-0.00000360,0.0
 0000574,-0.00000256,-0.00000795,0.00000776,-0.00000961,0.00001395,0.00
 000643,-0.00000297,-0.00000269,-0.00000250,-0.00003022,-0.00000195,0.0
 0000190,0.00001995,0.00000384,0.00000824,-0.00000308,0.00000512,-0.000
 01314,-0.00000099,0.00000151,0.00000893,-0.00000072,-0.00000062,0.0000
 0049,0.00000336,0.00000403,0.00000358,-0.00002377,-0.00004549,0.000032
 18,0.00001217,0.00001029,-0.00000520,0.00001116,0.00001213,-0.00000642
 ,0.00000627,0.00001948,-0.00000917,-0.00000288,0.00000110,-0.00000231,
 -0.00000318,-0.00000595,0.00000228,0.00000516,0.00000131,-0.00001103,0
 .00000151,-0.00000315,0.00000094,0.00000939,0.00000497,-0.00001259,-0.
 00000047,-0.00000104,0.00001312,0.00000112,0.00000303,0.00000051,0.000
 01153,0.00000590,-0.00000003,0.00000027,0.00000700,-0.00002767,0.00000
 389,0.00000165,0.00000185,-0.00000385,-0.00000188,0.00001050,-0.000022
 57,0.00000097,-0.00001007,0.00002305,-0.00003016,-0.00000615,0.0000155
 3,0.00001168,0.00002694,0.00000405,0.00003732,-0.00001998,-0.00000139,
 -0.00000496,0.00000278,-0.00000927,-0.00000345,-0.00001840,-0.00001877
 ,-0.00001000,0.00000062,0.00000252,-0.00000177,-0.00000107,0.00000333,
 -0.00000669,0.00001006,0.00000647,0.00000588,0.00000702\\\@
 The archive entry for this job was punched.


 SEE YOU NOW,
 YOUR BAIT OF FALSEHOOD TAKES THIS CARP OF TRUTH.
 AND THUS DO WE OF WISDOM AND OF REACH...
 BY INDIRECTIONS FIND DIRECTIONS OUT.    -- HAMLET, II, 1
 Job cpu time:       1 days 20 hours 29 minutes 35.8 seconds.
 Elapsed time:       0 days  0 hours 55 minutes 50.0 seconds.
 File lengths (MBytes):  RWF=   5859 Int=      0 D2E=      0 Chk=     74 Scr=      2
 Normal termination of Gaussian 16 at Wed Dec 21 02:20:22 2022.
