 Entering Gaussian System, Link 0=g16
 Initial command:
 /home/chesagar/softwares/G16_AVX2//g16/l1.exe "/home/chesagar/scratch/Gau-31001.inp" -scrdir="/home/chesagar/scratch/"
 Entering Link 1 = /home/chesagar/softwares/G16_AVX2//g16/l1.exe PID=     31003.
  
 Copyright (c) 1988-2019, Gaussian, Inc.  All Rights Reserved.
  
 This is part of the Gaussian(R) 16 program.  It is based on
 the Gaussian(R) 09 system (copyright 2009, Gaussian, Inc.),
 the Gaussian(R) 03 system (copyright 2003, Gaussian, Inc.),
 the Gaussian(R) 98 system (copyright 1998, Gaussian, Inc.),
 the Gaussian(R) 94 system (copyright 1995, Gaussian, Inc.),
 the Gaussian 92(TM) system (copyright 1992, Gaussian, Inc.),
 the Gaussian 90(TM) system (copyright 1990, Gaussian, Inc.),
 the Gaussian 88(TM) system (copyright 1988, Gaussian, Inc.),
 the Gaussian 86(TM) system (copyright 1986, Carnegie Mellon
 University), and the Gaussian 82(TM) system (copyright 1983,
 Carnegie Mellon University). Gaussian is a federally registered
 trademark of Gaussian, Inc.
  
 This software contains proprietary and confidential information,
 including trade secrets, belonging to Gaussian, Inc.
  
 This software is provided under written license and may be
 used, copied, transmitted, or stored only in accord with that
 written license.
  
 The following legend is applicable only to US Government
 contracts under FAR:
  
                    RESTRICTED RIGHTS LEGEND
  
 Use, reproduction and disclosure by the US Government is
 subject to restrictions as set forth in subparagraphs (a)
 and (c) of the Commercial Computer Software - Restricted
 Rights clause in FAR 52.227-19.
  
 Gaussian, Inc.
 340 Quinnipiac St., Bldg. 40, Wallingford CT 06492
  
  
 ---------------------------------------------------------------
 Warning -- This program may not be used in any manner that
 competes with the business of Gaussian, Inc. or will provide
 assistance to any competitor of Gaussian, Inc.  The licensee
 of this program is prohibited from giving any competitor of
 Gaussian, Inc. access to this program.  By using this program,
 the user acknowledges that Gaussian, Inc. is engaged in the
 business of creating and licensing software in the field of
 computational chemistry and represents and warrants to the
 licensee that it is not a competitor of Gaussian, Inc. and that
 it will not use this program in any manner prohibited above.
 ---------------------------------------------------------------
  

 Cite this work as:
 Gaussian 16, Revision C.01,
 M. J. Frisch, G. W. Trucks, H. B. Schlegel, G. E. Scuseria, 
 M. A. Robb, J. R. Cheeseman, G. Scalmani, V. Barone, 
 G. A. Petersson, H. Nakatsuji, X. Li, M. Caricato, A. V. Marenich, 
 J. Bloino, B. G. Janesko, R. Gomperts, B. Mennucci, H. P. Hratchian, 
 J. V. Ortiz, A. F. Izmaylov, J. L. Sonnenberg, D. Williams-Young, 
 F. Ding, F. Lipparini, F. Egidi, J. Goings, B. Peng, A. Petrone, 
 T. Henderson, D. Ranasinghe, V. G. Zakrzewski, J. Gao, N. Rega, 
 G. Zheng, W. Liang, M. Hada, M. Ehara, K. Toyota, R. Fukuda, 
 J. Hasegawa, M. Ishida, T. Nakajima, Y. Honda, O. Kitao, H. Nakai, 
 T. Vreven, K. Throssell, J. A. Montgomery, Jr., J. E. Peralta, 
 F. Ogliaro, M. J. Bearpark, J. J. Heyd, E. N. Brothers, K. N. Kudin, 
 V. N. Staroverov, T. A. Keith, R. Kobayashi, J. Normand, 
 K. Raghavachari, A. P. Rendell, J. C. Burant, S. S. Iyengar, 
 J. Tomasi, M. Cossi, J. M. Millam, M. Klene, C. Adamo, R. Cammi, 
 J. W. Ochterski, R. L. Martin, K. Morokuma, O. Farkas, 
 J. B. Foresman, and D. J. Fox, Gaussian, Inc., Wallingford CT, 2019.
 
 ******************************************
 Gaussian 16:  ES64L-G16RevC.01  3-Jul-2019
                21-Dec-2022 
 ******************************************
 %nprocshared=48
 Will use up to   48 processors via shared memory.
 %mem=100GB
 ---------------------------------------
 # opt freq b3lyp/gen nosymm pseudo=read
 ---------------------------------------
 1/18=20,19=15,26=3,38=1/1,3;
 2/9=110,12=2,15=1,17=6,18=5,40=1/2;
 3/5=7,11=2,16=1,17=8,25=1,30=1,71=1,74=-5/1,2,3;
 4//1;
 5/5=2,38=5/2;
 6/7=2,8=2,9=2,10=2,28=1/1;
 7/30=1/1,2,3,16;
 1/18=20,19=15,26=3/3(2);
 2/9=110,15=1/2;
 99//99;
 2/9=110,15=1/2;
 3/5=7,6=1,11=2,16=1,17=8,25=1,30=1,71=1,74=-5,82=7/1,2,3;
 4/5=5,16=3,69=1/1;
 5/5=2,38=5/2;
 7/30=1/1,2,3,16;
 1/18=20,19=15,26=3/3(-5);
 2/9=110,15=1/2;
 6/7=2,8=2,9=2,10=2,19=2,28=1/1;
 99/9=1/99;
 -------------------
 Title Card Required
 -------------------
 Symbolic Z-matrix:
 Charge =  0 Multiplicity = 1
 42                    0.48781   1.43165   12.27213 
 16                    1.43119   3.57228   12.56866 
 16                   -1.69608   1.86326   12.98279 
 16                   -0.28245   0.94584   10.09179 
 16                    2.35485  -0.14965   11.76398 
 42                   -2.06017   2.58019   10.6645 
 16                   -2.52028   2.13151   8.37009 
 16                   -1.03905   4.57357   10.52607 
 42                    1.01051   3.05961   10.2033 
 16                    0.42506   3.22349   7.73755 
 16                    2.94277   1.8686    9.3466 
 42                    3.2112    2.30373   11.69824 
 42                   -1.55875   4.56679   7.98431 
 16                    4.29692   1.9768    13.95954 
 16                    4.77963   4.04183   11.55114 
 16                   -3.62188   5.63493   8.94176 
 16                   -0.62301   6.77859   8.07503 
 42                   -4.35566   3.4203    9.05545 
 16                   -6.66411   3.59467   9.52367 
 16                   -4.21816   3.00129   11.40719 
 42                    2.85639   0.26897   13.97675 
 16                    3.62897  -1.41581   15.00585 
 16                    0.90487   0.91607   14.79735 
 42                    1.37898   5.48466   7.34661 
 16                    0.78017   5.098     4.97238 
 16                    1.79766   5.45841   9.93254 
 42                    3.59725   4.16963   9.54593 
 16                    3.5087    4.07801   7.03105 
 16                    5.18702   6.20073   9.32363 
 42                    4.39385   6.1878    7.27894 
 16                    5.92895   6.64702   5.9053 
 16                    2.58853   7.71359   7.37167 
 42                    1.69174   7.25867   5.17398 
 16                    3.18587   7.42414   3.67468 
 16                   -0.07492   8.50929   4.94858 
 42                   -1.21578   6.20963   5.88606 
 16                   -2.14793   4.02722   5.66099 
 16                   -3.09624   7.23209   5.35203 
 42                   -4.11063   5.1031    6.68733 
 16                   -5.04716   2.92845   6.73255 
 16                   -5.90971   6.5675    6.51913 
 42                   -6.92019   4.51637   7.24431 
 6                    -8.42421   5.64319   8.05355 
 6                    -7.91136   4.7207    5.46676 
 8                    -9.24973   6.28527   8.52578 
 8                    -8.49551   4.84616   4.48544 
 

 GradGradGradGradGradGradGradGradGradGradGradGradGradGradGradGradGradGrad
 Berny optimization.
 Initialization pass.
                           ----------------------------
                           !    Initial Parameters    !
                           ! (Angstroms and Degrees)  !
 --------------------------                            --------------------------
 ! Name  Definition              Value          Derivative Info.                !
 --------------------------------------------------------------------------------
 ! R1    R(1,2)                  2.358          estimate D2E/DX2                !
 ! R2    R(1,3)                  2.3368         estimate D2E/DX2                !
 ! R3    R(1,4)                  2.3629         estimate D2E/DX2                !
 ! R4    R(1,5)                  2.4989         estimate D2E/DX2                !
 ! R5    R(1,9)                  2.6839         estimate D2E/DX2                !
 ! R6    R(1,12)                 2.9166         estimate D2E/DX2                !
 ! R7    R(1,23)                 2.6108         estimate D2E/DX2                !
 ! R8    R(2,9)                  2.4566         estimate D2E/DX2                !
 ! R9    R(2,12)                 2.3527         estimate D2E/DX2                !
 ! R10   R(3,6)                  2.4538         estimate D2E/DX2                !
 ! R11   R(4,6)                  2.4818         estimate D2E/DX2                !
 ! R12   R(4,9)                  2.4804         estimate D2E/DX2                !
 ! R13   R(5,12)                 2.5994         estimate D2E/DX2                !
 ! R14   R(5,21)                 2.3072         estimate D2E/DX2                !
 ! R15   R(6,7)                  2.3827         estimate D2E/DX2                !
 ! R16   R(6,8)                  2.244          estimate D2E/DX2                !
 ! R17   R(6,18)                 2.9264         estimate D2E/DX2                !
 ! R18   R(6,20)                 2.3207         estimate D2E/DX2                !
 ! R19   R(7,13)                 2.6465         estimate D2E/DX2                !
 ! R20   R(7,18)                 2.3451         estimate D2E/DX2                !
 ! R21   R(8,9)                  2.5685         estimate D2E/DX2                !
 ! R22   R(8,13)                 2.5944         estimate D2E/DX2                !
 ! R23   R(9,10)                 2.5396         estimate D2E/DX2                !
 ! R24   R(9,11)                 2.4261         estimate D2E/DX2                !
 ! R25   R(9,12)                 2.7657         estimate D2E/DX2                !
 ! R26   R(9,26)                 2.5391         estimate D2E/DX2                !
 ! R27   R(9,27)                 2.8906         estimate D2E/DX2                !
 ! R28   R(10,13)                2.4085         estimate D2E/DX2                !
 ! R29   R(10,24)                2.4851         estimate D2E/DX2                !
 ! R30   R(11,12)                2.4066         estimate D2E/DX2                !
 ! R31   R(11,27)                2.4006         estimate D2E/DX2                !
 ! R32   R(12,14)                2.5297         estimate D2E/DX2                !
 ! R33   R(12,15)                2.3458         estimate D2E/DX2                !
 ! R34   R(12,21)                3.0753         estimate D2E/DX2                !
 ! R35   R(12,27)                2.8746         estimate D2E/DX2                !
 ! R36   R(13,16)                2.5128         estimate D2E/DX2                !
 ! R37   R(13,17)                2.4033         estimate D2E/DX2                !
 ! R38   R(13,36)                2.6869         estimate D2E/DX2                !
 ! R39   R(13,37)                2.4569         estimate D2E/DX2                !
 ! R40   R(13,39)                2.9124         estimate D2E/DX2                !
 ! R41   R(14,21)                2.2343         estimate D2E/DX2                !
 ! R42   R(15,27)                2.3314         estimate D2E/DX2                !
 ! R43   R(16,18)                2.3358         estimate D2E/DX2                !
 ! R44   R(16,39)                2.3673         estimate D2E/DX2                !
 ! R45   R(17,24)                2.4925         estimate D2E/DX2                !
 ! R46   R(17,36)                2.3381         estimate D2E/DX2                !
 ! R47   R(18,19)                2.3619         estimate D2E/DX2                !
 ! R48   R(18,20)                2.3927         estimate D2E/DX2                !
 ! R49   R(18,39)                2.9155         estimate D2E/DX2                !
 ! R50   R(18,40)                2.473          estimate D2E/DX2                !
 ! R51   R(19,42)                2.472          estimate D2E/DX2                !
 ! R52   R(21,22)                2.12           estimate D2E/DX2                !
 ! R53   R(21,23)                2.2137         estimate D2E/DX2                !
 ! R54   R(24,25)                2.4789         estimate D2E/DX2                !
 ! R55   R(24,26)                2.6197         estimate D2E/DX2                !
 ! R56   R(24,28)                2.5718         estimate D2E/DX2                !
 ! R57   R(24,30)                3.0965         estimate D2E/DX2                !
 ! R58   R(24,32)                2.5361         estimate D2E/DX2                !
 ! R59   R(24,33)                2.8223         estimate D2E/DX2                !
 ! R60   R(24,36)                3.0646         estimate D2E/DX2                !
 ! R61   R(25,33)                2.3537         estimate D2E/DX2                !
 ! R62   R(25,36)                2.4606         estimate D2E/DX2                !
 ! R63   R(26,27)                2.247          estimate D2E/DX2                !
 ! R64   R(27,28)                2.5181         estimate D2E/DX2                !
 ! R65   R(27,29)                2.5889         estimate D2E/DX2                !
 ! R66   R(28,30)                2.3013         estimate D2E/DX2                !
 ! R67   R(29,30)                2.1932         estimate D2E/DX2                !
 ! R68   R(30,31)                2.1105         estimate D2E/DX2                !
 ! R69   R(30,32)                2.3655         estimate D2E/DX2                !
 ! R70   R(32,33)                2.4168         estimate D2E/DX2                !
 ! R71   R(33,34)                2.1231         estimate D2E/DX2                !
 ! R72   R(33,35)                2.1762         estimate D2E/DX2                !
 ! R73   R(35,36)                2.7329         estimate D2E/DX2                !
 ! R74   R(36,37)                2.3838         estimate D2E/DX2                !
 ! R75   R(36,38)                2.2061         estimate D2E/DX2                !
 ! R76   R(37,39)                2.4623         estimate D2E/DX2                !
 ! R77   R(38,39)                2.7101         estimate D2E/DX2                !
 ! R78   R(39,40)                2.3682         estimate D2E/DX2                !
 ! R79   R(39,41)                2.3258         estimate D2E/DX2                !
 ! R80   R(39,42)                2.9237         estimate D2E/DX2                !
 ! R81   R(40,42)                2.5083         estimate D2E/DX2                !
 ! R82   R(41,42)                2.3988         estimate D2E/DX2                !
 ! R83   R(42,43)                2.0461         estimate D2E/DX2                !
 ! R84   R(42,44)                2.0454         estimate D2E/DX2                !
 ! R85   R(43,45)                1.1475         estimate D2E/DX2                !
 ! R86   R(44,46)                1.1489         estimate D2E/DX2                !
 ! A1    A(2,1,3)               99.6704         estimate D2E/DX2                !
 ! A2    A(2,1,4)              115.6649         estimate D2E/DX2                !
 ! A3    A(2,1,5)              107.5248         estimate D2E/DX2                !
 ! A4    A(2,1,23)              89.6408         estimate D2E/DX2                !
 ! A5    A(3,1,4)               90.7991         estimate D2E/DX2                !
 ! A6    A(3,1,5)              151.2783         estimate D2E/DX2                !
 ! A7    A(3,1,9)              107.7218         estimate D2E/DX2                !
 ! A8    A(3,1,12)             151.313          estimate D2E/DX2                !
 ! A9    A(3,1,23)              83.778          estimate D2E/DX2                !
 ! A10   A(4,1,5)               85.7453         estimate D2E/DX2                !
 ! A11   A(4,1,12)             100.6201         estimate D2E/DX2                !
 ! A12   A(4,1,23)             154.6833         estimate D2E/DX2                !
 ! A13   A(5,1,9)               94.679          estimate D2E/DX2                !
 ! A14   A(5,1,23)              87.2699         estimate D2E/DX2                !
 ! A15   A(9,1,23)             146.5338         estimate D2E/DX2                !
 ! A16   A(12,1,23)             95.7506         estimate D2E/DX2                !
 ! A17   A(1,3,6)               84.5668         estimate D2E/DX2                !
 ! A18   A(1,4,6)               83.4062         estimate D2E/DX2                !
 ! A19   A(6,4,9)               78.5692         estimate D2E/DX2                !
 ! A20   A(1,5,21)              81.522          estimate D2E/DX2                !
 ! A21   A(3,6,4)               85.3727         estimate D2E/DX2                !
 ! A22   A(3,6,7)              152.0556         estimate D2E/DX2                !
 ! A23   A(3,6,8)              104.496          estimate D2E/DX2                !
 ! A24   A(3,6,18)             136.0329         estimate D2E/DX2                !
 ! A25   A(3,6,20)              83.6063         estimate D2E/DX2                !
 ! A26   A(4,6,7)               78.0008         estimate D2E/DX2                !
 ! A27   A(4,6,8)              104.17           estimate D2E/DX2                !
 ! A28   A(4,6,18)             128.611          estimate D2E/DX2                !
 ! A29   A(4,6,20)             149.25           estimate D2E/DX2                !
 ! A30   A(7,6,8)              101.2882         estimate D2E/DX2                !
 ! A31   A(7,6,20)              99.3678         estimate D2E/DX2                !
 ! A32   A(8,6,18)              93.8993         estimate D2E/DX2                !
 ! A33   A(8,6,20)             106.3615         estimate D2E/DX2                !
 ! A34   A(6,7,13)              84.0841         estimate D2E/DX2                !
 ! A35   A(13,7,18)             79.7027         estimate D2E/DX2                !
 ! A36   A(6,8,9)               81.2139         estimate D2E/DX2                !
 ! A37   A(6,8,13)              88.1068         estimate D2E/DX2                !
 ! A38   A(9,8,13)              92.0166         estimate D2E/DX2                !
 ! A39   A(1,9,8)               96.042          estimate D2E/DX2                !
 ! A40   A(1,9,10)             137.9579         estimate D2E/DX2                !
 ! A41   A(1,9,11)              97.4424         estimate D2E/DX2                !
 ! A42   A(1,9,26)             135.6928         estimate D2E/DX2                !
 ! A43   A(1,9,27)             125.6267         estimate D2E/DX2                !
 ! A44   A(2,9,4)              108.0836         estimate D2E/DX2                !
 ! A45   A(2,9,8)               83.8366         estimate D2E/DX2                !
 ! A46   A(2,9,10)             163.9218         estimate D2E/DX2                !
 ! A47   A(2,9,11)             107.8223         estimate D2E/DX2                !
 ! A48   A(2,9,26)              81.5138         estimate D2E/DX2                !
 ! A49   A(2,9,27)              89.1741         estimate D2E/DX2                !
 ! A50   A(4,9,8)               95.2792         estimate D2E/DX2                !
 ! A51   A(4,9,10)              83.7524         estimate D2E/DX2                !
 ! A52   A(4,9,11)              88.9076         estimate D2E/DX2                !
 ! A53   A(4,9,12)             101.8981         estimate D2E/DX2                !
 ! A54   A(4,9,26)             164.1357         estimate D2E/DX2                !
 ! A55   A(4,9,27)             141.5835         estimate D2E/DX2                !
 ! A56   A(8,9,10)              84.262          estimate D2E/DX2                !
 ! A57   A(8,9,12)             136.7289         estimate D2E/DX2                !
 ! A58   A(8,9,26)              72.7773         estimate D2E/DX2                !
 ! A59   A(8,9,27)             121.0857         estimate D2E/DX2                !
 ! A60   A(10,9,11)             82.671          estimate D2E/DX2                !
 ! A61   A(10,9,12)            136.5417         estimate D2E/DX2                !
 ! A62   A(10,9,26)             84.6618         estimate D2E/DX2                !
 ! A63   A(10,9,27)             87.7483         estimate D2E/DX2                !
 ! A64   A(11,9,26)            100.3245         estimate D2E/DX2                !
 ! A65   A(12,9,26)             93.9658         estimate D2E/DX2                !
 ! A66   A(9,10,13)             97.2613         estimate D2E/DX2                !
 ! A67   A(9,10,24)             97.0633         estimate D2E/DX2                !
 ! A68   A(13,10,24)            79.9103         estimate D2E/DX2                !
 ! A69   A(1,12,11)             91.9519         estimate D2E/DX2                !
 ! A70   A(1,12,14)            100.7329         estimate D2E/DX2                !
 ! A71   A(1,12,15)            149.1161         estimate D2E/DX2                !
 ! A72   A(1,12,21)             63.1704         estimate D2E/DX2                !
 ! A73   A(1,12,27)            117.8275         estimate D2E/DX2                !
 ! A74   A(2,12,5)             104.4951         estimate D2E/DX2                !
 ! A75   A(2,12,11)            112.0009         estimate D2E/DX2                !
 ! A76   A(2,12,14)             93.6516         estimate D2E/DX2                !
 ! A77   A(2,12,15)             97.4439         estimate D2E/DX2                !
 ! A78   A(2,12,21)             89.7337         estimate D2E/DX2                !
 ! A79   A(2,12,27)             91.6404         estimate D2E/DX2                !
 ! A80   A(5,12,9)              90.5433         estimate D2E/DX2                !
 ! A81   A(5,12,11)             79.4735         estimate D2E/DX2                !
 ! A82   A(5,12,14)             89.8173         estimate D2E/DX2                !
 ! A83   A(5,12,15)            157.1018         estimate D2E/DX2                !
 ! A84   A(5,12,27)            132.5187         estimate D2E/DX2                !
 ! A85   A(9,12,14)            149.3187         estimate D2E/DX2                !
 ! A86   A(9,12,15)            107.1948         estimate D2E/DX2                !
 ! A87   A(9,12,21)            119.3076         estimate D2E/DX2                !
 ! A88   A(11,12,14)           153.8984         estimate D2E/DX2                !
 ! A89   A(11,12,15)            98.4687         estimate D2E/DX2                !
 ! A90   A(11,12,21)           126.2624         estimate D2E/DX2                !
 ! A91   A(14,12,15)            82.2326         estimate D2E/DX2                !
 ! A92   A(14,12,27)           134.0723         estimate D2E/DX2                !
 ! A93   A(15,12,21)           127.8681         estimate D2E/DX2                !
 ! A94   A(7,13,8)              86.1222         estimate D2E/DX2                !
 ! A95   A(7,13,10)             78.5199         estimate D2E/DX2                !
 ! A96   A(7,13,16)             92.1381         estimate D2E/DX2                !
 ! A97   A(7,13,36)            136.2901         estimate D2E/DX2                !
 ! A98   A(7,13,37)             81.2936         estimate D2E/DX2                !
 ! A99   A(7,13,39)             85.1825         estimate D2E/DX2                !
 ! A100  A(8,13,10)             86.3788         estimate D2E/DX2                !
 ! A101  A(8,13,16)             77.8809         estimate D2E/DX2                !
 ! A102  A(8,13,17)             83.2591         estimate D2E/DX2                !
 ! A103  A(8,13,36)            137.5557         estimate D2E/DX2                !
 ! A104  A(8,13,39)            127.6872         estimate D2E/DX2                !
 ! A105  A(10,13,16)           162.2501         estimate D2E/DX2                !
 ! A106  A(10,13,17)           101.3299         estimate D2E/DX2                !
 ! A107  A(10,13,36)            98.9673         estimate D2E/DX2                !
 ! A108  A(10,13,37)            88.7483         estimate D2E/DX2                !
 ! A109  A(10,13,39)           141.1507         estimate D2E/DX2                !
 ! A110  A(16,13,17)            85.0715         estimate D2E/DX2                !
 ! A111  A(16,13,36)            98.1897         estimate D2E/DX2                !
 ! A112  A(16,13,37)           104.8788         estimate D2E/DX2                !
 ! A113  A(17,13,37)           109.3406         estimate D2E/DX2                !
 ! A114  A(17,13,39)           100.865          estimate D2E/DX2                !
 ! A115  A(36,13,39)            69.6027         estimate D2E/DX2                !
 ! A116  A(13,16,18)            82.7294         estimate D2E/DX2                !
 ! A117  A(13,17,24)            79.8596         estimate D2E/DX2                !
 ! A118  A(6,18,16)             93.0113         estimate D2E/DX2                !
 ! A119  A(6,18,19)            132.753          estimate D2E/DX2                !
 ! A120  A(6,18,39)            123.1194         estimate D2E/DX2                !
 ! A121  A(6,18,40)            132.7407         estimate D2E/DX2                !
 ! A122  A(7,18,16)            105.1278         estimate D2E/DX2                !
 ! A123  A(7,18,19)            149.7065         estimate D2E/DX2                !
 ! A124  A(7,18,20)             98.3971         estimate D2E/DX2                !
 ! A125  A(7,18,39)             90.8047         estimate D2E/DX2                !
 ! A126  A(7,18,40)             80.5041         estimate D2E/DX2                !
 ! A127  A(16,18,19)           104.2818         estimate D2E/DX2                !
 ! A128  A(16,18,20)           101.293          estimate D2E/DX2                !
 ! A129  A(16,18,40)           103.3377         estimate D2E/DX2                !
 ! A130  A(19,18,20)            82.776          estimate D2E/DX2                !
 ! A131  A(19,18,39)           101.5693         estimate D2E/DX2                !
 ! A132  A(19,18,40)            85.848          estimate D2E/DX2                !
 ! A133  A(20,18,39)           153.4574         estimate D2E/DX2                !
 ! A134  A(20,18,40)           154.7471         estimate D2E/DX2                !
 ! A135  A(18,19,42)            86.9035         estimate D2E/DX2                !
 ! A136  A(5,21,14)            105.7511         estimate D2E/DX2                !
 ! A137  A(5,21,22)            113.6146         estimate D2E/DX2                !
 ! A138  A(5,21,23)            102.5283         estimate D2E/DX2                !
 ! A139  A(12,21,22)           147.5021         estimate D2E/DX2                !
 ! A140  A(12,21,23)           100.5413         estimate D2E/DX2                !
 ! A141  A(14,21,22)           112.1002         estimate D2E/DX2                !
 ! A142  A(14,21,23)           110.3524         estimate D2E/DX2                !
 ! A143  A(22,21,23)           111.9391         estimate D2E/DX2                !
 ! A144  A(1,23,21)             80.7939         estimate D2E/DX2                !
 ! A145  A(10,24,17)            96.7805         estimate D2E/DX2                !
 ! A146  A(10,24,25)            85.1827         estimate D2E/DX2                !
 ! A147  A(10,24,26)            84.0851         estimate D2E/DX2                !
 ! A148  A(10,24,28)            80.7644         estimate D2E/DX2                !
 ! A149  A(10,24,30)           125.7173         estimate D2E/DX2                !
 ! A150  A(10,24,33)           137.3559         estimate D2E/DX2                !
 ! A151  A(10,24,36)            88.0065         estimate D2E/DX2                !
 ! A152  A(17,24,25)            99.6047         estimate D2E/DX2                !
 ! A153  A(17,24,26)            81.0892         estimate D2E/DX2                !
 ! A154  A(17,24,30)           132.107          estimate D2E/DX2                !
 ! A155  A(17,24,32)            85.6376         estimate D2E/DX2                !
 ! A156  A(17,24,33)            89.2937         estimate D2E/DX2                !
 ! A157  A(25,24,28)            89.8398         estimate D2E/DX2                !
 ! A158  A(25,24,30)           104.4583         estimate D2E/DX2                !
 ! A159  A(25,24,32)           105.1745         estimate D2E/DX2                !
 ! A160  A(26,24,28)            89.0424         estimate D2E/DX2                !
 ! A161  A(26,24,30)            82.4289         estimate D2E/DX2                !
 ! A162  A(26,24,32)            85.574          estimate D2E/DX2                !
 ! A163  A(26,24,33)           138.4578         estimate D2E/DX2                !
 ! A164  A(26,24,36)           127.4548         estimate D2E/DX2                !
 ! A165  A(28,24,32)            94.9891         estimate D2E/DX2                !
 ! A166  A(28,24,33)            99.066          estimate D2E/DX2                !
 ! A167  A(28,24,36)           140.5407         estimate D2E/DX2                !
 ! A168  A(30,24,33)            74.487          estimate D2E/DX2                !
 ! A169  A(30,24,36)           139.485          estimate D2E/DX2                !
 ! A170  A(32,24,36)           101.573          estimate D2E/DX2                !
 ! A171  A(33,24,36)            65.0544         estimate D2E/DX2                !
 ! A172  A(33,25,36)            82.3936         estimate D2E/DX2                !
 ! A173  A(9,26,24)             93.7372         estimate D2E/DX2                !
 ! A174  A(24,26,27)            87.9318         estimate D2E/DX2                !
 ! A175  A(9,27,15)            103.7215         estimate D2E/DX2                !
 ! A176  A(9,27,28)            100.468          estimate D2E/DX2                !
 ! A177  A(9,27,29)            150.4982         estimate D2E/DX2                !
 ! A178  A(11,27,15)            99.0412         estimate D2E/DX2                !
 ! A179  A(11,27,26)           110.2254         estimate D2E/DX2                !
 ! A180  A(11,27,28)            82.6813         estimate D2E/DX2                !
 ! A181  A(11,27,29)           155.8262         estimate D2E/DX2                !
 ! A182  A(12,27,26)            97.8118         estimate D2E/DX2                !
 ! A183  A(12,27,28)           136.009          estimate D2E/DX2                !
 ! A184  A(12,27,29)           130.9975         estimate D2E/DX2                !
 ! A185  A(15,27,26)           106.8364         estimate D2E/DX2                !
 ! A186  A(15,27,28)           151.0261         estimate D2E/DX2                !
 ! A187  A(15,27,29)            78.7798         estimate D2E/DX2                !
 ! A188  A(26,27,28)            99.4705         estimate D2E/DX2                !
 ! A189  A(26,27,29)            93.2445         estimate D2E/DX2                !
 ! A190  A(28,27,29)            87.9587         estimate D2E/DX2                !
 ! A191  A(24,28,27)            83.4929         estimate D2E/DX2                !
 ! A192  A(27,28,30)            81.1149         estimate D2E/DX2                !
 ! A193  A(27,29,30)            81.5669         estimate D2E/DX2                !
 ! A194  A(24,30,29)           109.4557         estimate D2E/DX2                !
 ! A195  A(24,30,31)           140.5167         estimate D2E/DX2                !
 ! A196  A(28,30,29)           104.1774         estimate D2E/DX2                !
 ! A197  A(28,30,31)           114.1502         estimate D2E/DX2                !
 ! A198  A(28,30,32)           107.578          estimate D2E/DX2                !
 ! A199  A(29,30,31)           110.0266         estimate D2E/DX2                !
 ! A200  A(29,30,32)           103.63           estimate D2E/DX2                !
 ! A201  A(31,30,32)           116.1211         estimate D2E/DX2                !
 ! A202  A(30,32,33)            97.2457         estimate D2E/DX2                !
 ! A203  A(24,33,34)           132.1132         estimate D2E/DX2                !
 ! A204  A(24,33,35)           110.5479         estimate D2E/DX2                !
 ! A205  A(25,33,32)           113.2273         estimate D2E/DX2                !
 ! A206  A(25,33,34)           106.4755         estimate D2E/DX2                !
 ! A207  A(25,33,35)           101.7864         estimate D2E/DX2                !
 ! A208  A(32,33,34)           111.4905         estimate D2E/DX2                !
 ! A209  A(32,33,35)           106.6926         estimate D2E/DX2                !
 ! A210  A(34,33,35)           116.9602         estimate D2E/DX2                !
 ! A211  A(33,35,36)            79.6182         estimate D2E/DX2                !
 ! A212  A(13,36,24)            65.8733         estimate D2E/DX2                !
 ! A213  A(13,36,25)            96.7359         estimate D2E/DX2                !
 ! A214  A(13,36,35)           146.6856         estimate D2E/DX2                !
 ! A215  A(13,36,38)           111.3229         estimate D2E/DX2                !
 ! A216  A(17,36,25)           104.5916         estimate D2E/DX2                !
 ! A217  A(17,36,35)            90.6043         estimate D2E/DX2                !
 ! A218  A(17,36,37)           114.2251         estimate D2E/DX2                !
 ! A219  A(17,36,38)           109.266          estimate D2E/DX2                !
 ! A220  A(24,36,35)            90.521          estimate D2E/DX2                !
 ! A221  A(24,36,37)            99.1785         estimate D2E/DX2                !
 ! A222  A(24,36,38)           161.2157         estimate D2E/DX2                !
 ! A223  A(25,36,35)            85.0752         estimate D2E/DX2                !
 ! A224  A(25,36,37)            82.4454         estimate D2E/DX2                !
 ! A225  A(25,36,38)           144.189          estimate D2E/DX2                !
 ! A226  A(35,36,37)           154.3202         estimate D2E/DX2                !
 ! A227  A(35,36,38)            83.2692         estimate D2E/DX2                !
 ! A228  A(37,36,38)            93.9076         estimate D2E/DX2                !
 ! A229  A(36,37,39)            82.6642         estimate D2E/DX2                !
 ! A230  A(36,38,39)            80.5425         estimate D2E/DX2                !
 ! A231  A(13,39,18)            66.7726         estimate D2E/DX2                !
 ! A232  A(13,39,38)            92.0697         estimate D2E/DX2                !
 ! A233  A(13,39,40)            99.7244         estimate D2E/DX2                !
 ! A234  A(13,39,41)           145.6829         estimate D2E/DX2                !
 ! A235  A(13,39,42)           136.0723         estimate D2E/DX2                !
 ! A236  A(16,39,37)           109.3014         estimate D2E/DX2                !
 ! A237  A(16,39,38)           102.4421         estimate D2E/DX2                !
 ! A238  A(16,39,40)           105.6498         estimate D2E/DX2                !
 ! A239  A(16,39,41)            94.9979         estimate D2E/DX2                !
 ! A240  A(16,39,42)            93.558          estimate D2E/DX2                !
 ! A241  A(18,39,37)            98.8217         estimate D2E/DX2                !
 ! A242  A(18,39,38)           152.2645         estimate D2E/DX2                !
 ! A243  A(18,39,41)           110.9252         estimate D2E/DX2                !
 ! A244  A(18,39,42)            69.4309         estimate D2E/DX2                !
 ! A245  A(37,39,38)            80.7655         estimate D2E/DX2                !
 ! A246  A(37,39,40)            85.5236         estimate D2E/DX2                !
 ! A247  A(37,39,41)           149.489          estimate D2E/DX2                !
 ! A248  A(37,39,42)           139.2609         estimate D2E/DX2                !
 ! A249  A(38,39,40)           151.4999         estimate D2E/DX2                !
 ! A250  A(38,39,41)            76.0709         estimate D2E/DX2                !
 ! A251  A(38,39,42)           127.6763         estimate D2E/DX2                !
 ! A252  A(40,39,41)           105.8818         estimate D2E/DX2                !
 ! A253  A(18,40,42)            83.7568         estimate D2E/DX2                !
 ! A254  A(19,42,39)            98.6814         estimate D2E/DX2                !
 ! A255  A(19,42,40)            82.8035         estimate D2E/DX2                !
 ! A256  A(19,42,41)           123.6382         estimate D2E/DX2                !
 ! A257  A(19,42,43)            85.2276         estimate D2E/DX2                !
 ! A258  A(19,42,44)           152.7183         estimate D2E/DX2                !
 ! A259  A(39,42,43)           132.1585         estimate D2E/DX2                !
 ! A260  A(39,42,44)           106.2633         estimate D2E/DX2                !
 ! A261  A(40,42,41)            99.502          estimate D2E/DX2                !
 ! A262  A(40,42,44)           104.3464         estimate D2E/DX2                !
 ! A263  A(41,42,43)            87.6105         estimate D2E/DX2                !
 ! A264  A(41,42,44)            81.72           estimate D2E/DX2                !
 ! A265  A(43,42,44)            86.1293         estimate D2E/DX2                !
 ! A266  L(8,9,11,1,-1)        193.4844         estimate D2E/DX2                !
 ! A267  L(21,12,27,2,-1)      181.3741         estimate D2E/DX2                !
 ! A268  L(7,13,17,8,-1)       169.3812         estimate D2E/DX2                !
 ! A269  L(8,13,37,7,-1)       167.4157         estimate D2E/DX2                !
 ! A270  L(10,24,32,17,-1)     182.418          estimate D2E/DX2                !
 ! A271  L(17,24,28,10,-1)     177.5449         estimate D2E/DX2                !
 ! A272  L(25,24,26,10,-1)     169.2678         estimate D2E/DX2                !
 ! A273  L(40,42,43,19,-1)     168.0311         estimate D2E/DX2                !
 ! A274  L(42,43,45,46,-1)     181.1834         estimate D2E/DX2                !
 ! A275  L(42,44,46,34,-1)     181.3933         estimate D2E/DX2                !
 ! A276  L(8,9,11,1,-2)        175.4154         estimate D2E/DX2                !
 ! A277  L(21,12,27,2,-2)      179.9262         estimate D2E/DX2                !
 ! A278  L(7,13,17,8,-2)       180.5912         estimate D2E/DX2                !
 ! A279  L(8,13,37,7,-2)       182.4238         estimate D2E/DX2                !
 ! A280  L(10,24,32,17,-2)     169.089          estimate D2E/DX2                !
 ! A281  L(17,24,28,10,-2)     189.748          estimate D2E/DX2                !
 ! A282  L(25,24,26,10,-2)     180.6122         estimate D2E/DX2                !
 ! A283  L(40,42,43,19,-2)     180.5791         estimate D2E/DX2                !
 ! A284  L(42,43,45,46,-2)     180.8202         estimate D2E/DX2                !
 ! A285  L(42,44,46,34,-2)     181.0244         estimate D2E/DX2                !
 ! D1    D(2,1,3,6)             85.8417         estimate D2E/DX2                !
 ! D2    D(4,1,3,6)            -30.3751         estimate D2E/DX2                !
 ! D3    D(5,1,3,6)           -112.9665         estimate D2E/DX2                !
 ! D4    D(9,1,3,6)             26.6185         estimate D2E/DX2                !
 ! D5    D(12,1,3,6)            83.7958         estimate D2E/DX2                !
 ! D6    D(23,1,3,6)           174.4107         estimate D2E/DX2                !
 ! D7    D(2,1,4,6)            -71.0659         estimate D2E/DX2                !
 ! D8    D(3,1,4,6)             30.0671         estimate D2E/DX2                !
 ! D9    D(5,1,4,6)           -178.4787         estimate D2E/DX2                !
 ! D10   D(12,1,4,6)          -123.473          estimate D2E/DX2                !
 ! D11   D(23,1,4,6)           107.1237         estimate D2E/DX2                !
 ! D12   D(2,1,5,21)            69.6557         estimate D2E/DX2                !
 ! D13   D(3,1,5,21)           -90.8757         estimate D2E/DX2                !
 ! D14   D(4,1,5,21)          -174.7529         estimate D2E/DX2                !
 ! D15   D(9,1,5,21)           127.4126         estimate D2E/DX2                !
 ! D16   D(23,1,5,21)          -19.1044         estimate D2E/DX2                !
 ! D17   D(3,1,9,8)             12.4777         estimate D2E/DX2                !
 ! D18   D(3,1,9,10)           -75.6455         estimate D2E/DX2                !
 ! D19   D(3,1,9,11)          -162.9377         estimate D2E/DX2                !
 ! D20   D(3,1,9,26)            83.9466         estimate D2E/DX2                !
 ! D21   D(3,1,9,27)           148.0892         estimate D2E/DX2                !
 ! D22   D(5,1,9,8)            174.262          estimate D2E/DX2                !
 ! D23   D(5,1,9,10)            86.1388         estimate D2E/DX2                !
 ! D24   D(5,1,9,11)            -1.1534         estimate D2E/DX2                !
 ! D25   D(5,1,9,26)          -114.269          estimate D2E/DX2                !
 ! D26   D(5,1,9,27)           -50.1265         estimate D2E/DX2                !
 ! D27   D(23,1,9,8)           -93.609          estimate D2E/DX2                !
 ! D28   D(23,1,9,10)          178.2678         estimate D2E/DX2                !
 ! D29   D(23,1,9,11)           90.9756         estimate D2E/DX2                !
 ! D30   D(23,1,9,26)          -22.1401         estimate D2E/DX2                !
 ! D31   D(23,1,9,27)           42.0025         estimate D2E/DX2                !
 ! D32   D(3,1,12,11)         -114.1726         estimate D2E/DX2                !
 ! D33   D(3,1,12,14)           88.7555         estimate D2E/DX2                !
 ! D34   D(3,1,12,15)           -4.0487         estimate D2E/DX2                !
 ! D35   D(3,1,12,21)          115.5879         estimate D2E/DX2                !
 ! D36   D(3,1,12,27)          -65.4787         estimate D2E/DX2                !
 ! D37   D(4,1,12,11)           -2.319          estimate D2E/DX2                !
 ! D38   D(4,1,12,14)         -159.3909         estimate D2E/DX2                !
 ! D39   D(4,1,12,15)          107.8049         estimate D2E/DX2                !
 ! D40   D(4,1,12,21)         -132.5585         estimate D2E/DX2                !
 ! D41   D(4,1,12,27)           46.3749         estimate D2E/DX2                !
 ! D42   D(23,1,12,11)         158.2852         estimate D2E/DX2                !
 ! D43   D(23,1,12,14)           1.2132         estimate D2E/DX2                !
 ! D44   D(23,1,12,15)         -91.591          estimate D2E/DX2                !
 ! D45   D(23,1,12,21)          28.0456         estimate D2E/DX2                !
 ! D46   D(23,1,12,27)        -153.021          estimate D2E/DX2                !
 ! D47   D(2,1,23,21)          -87.5781         estimate D2E/DX2                !
 ! D48   D(3,1,23,21)          172.6538         estimate D2E/DX2                !
 ! D49   D(4,1,23,21)           94.0537         estimate D2E/DX2                !
 ! D50   D(5,1,23,21)           19.9856         estimate D2E/DX2                !
 ! D51   D(9,1,23,21)          -74.3705         estimate D2E/DX2                !
 ! D52   D(12,1,23,21)         -36.1901         estimate D2E/DX2                !
 ! D53   D(1,2,9,12)           -83.0891         estimate D2E/DX2                !
 ! D54   D(1,3,6,4)             28.8784         estimate D2E/DX2                !
 ! D55   D(1,3,6,7)             82.1749         estimate D2E/DX2                !
 ! D56   D(1,3,6,8)            -74.5806         estimate D2E/DX2                !
 ! D57   D(1,3,6,18)           173.7524         estimate D2E/DX2                !
 ! D58   D(1,3,6,20)          -179.8769         estimate D2E/DX2                !
 ! D59   D(1,4,6,3)            -28.5969         estimate D2E/DX2                !
 ! D60   D(1,4,6,7)            173.991          estimate D2E/DX2                !
 ! D61   D(1,4,6,8)             75.2056         estimate D2E/DX2                !
 ! D62   D(1,4,6,18)          -177.8531         estimate D2E/DX2                !
 ! D63   D(1,4,6,20)           -97.8307         estimate D2E/DX2                !
 ! D64   D(9,4,6,3)            -96.6527         estimate D2E/DX2                !
 ! D65   D(9,4,6,7)            105.9351         estimate D2E/DX2                !
 ! D66   D(9,4,6,8)              7.1498         estimate D2E/DX2                !
 ! D67   D(9,4,6,18)           114.0911         estimate D2E/DX2                !
 ! D68   D(9,4,6,20)          -165.8866         estimate D2E/DX2                !
 ! D69   D(6,4,9,2)             79.1466         estimate D2E/DX2                !
 ! D70   D(6,4,9,8)             -6.0779         estimate D2E/DX2                !
 ! D71   D(6,4,9,10)           -89.6979         estimate D2E/DX2                !
 ! D72   D(6,4,9,11)          -172.4441         estimate D2E/DX2                !
 ! D73   D(6,4,9,12)           133.9845         estimate D2E/DX2                !
 ! D74   D(6,4,9,26)           -46.383          estimate D2E/DX2                !
 ! D75   D(6,4,9,27)          -168.0644         estimate D2E/DX2                !
 ! D76   D(1,5,21,14)          -92.3846         estimate D2E/DX2                !
 ! D77   D(1,5,21,22)          144.2524         estimate D2E/DX2                !
 ! D78   D(1,5,21,23)           23.2641         estimate D2E/DX2                !
 ! D79   D(3,6,7,13)          -162.1653         estimate D2E/DX2                !
 ! D80   D(4,6,7,13)          -107.3821         estimate D2E/DX2                !
 ! D81   D(8,6,7,13)            -5.0967         estimate D2E/DX2                !
 ! D82   D(20,6,7,13)          103.8123         estimate D2E/DX2                !
 ! D83   D(3,6,8,9)             81.9695         estimate D2E/DX2                !
 ! D84   D(3,6,8,13)           174.304          estimate D2E/DX2                !
 ! D85   D(4,6,8,9)             -6.8465         estimate D2E/DX2                !
 ! D86   D(4,6,8,13)            85.4881         estimate D2E/DX2                !
 ! D87   D(7,6,8,9)            -87.16           estimate D2E/DX2                !
 ! D88   D(7,6,8,13)             5.1745         estimate D2E/DX2                !
 ! D89   D(18,6,8,9)          -138.3231         estimate D2E/DX2                !
 ! D90   D(18,6,8,13)          -45.9886         estimate D2E/DX2                !
 ! D91   D(20,6,8,9)           169.4493         estimate D2E/DX2                !
 ! D92   D(20,6,8,13)          -98.2161         estimate D2E/DX2                !
 ! D93   D(3,6,18,16)          110.1291         estimate D2E/DX2                !
 ! D94   D(3,6,18,19)           -2.5183         estimate D2E/DX2                !
 ! D95   D(3,6,18,39)          155.7952         estimate D2E/DX2                !
 ! D96   D(3,6,18,40)         -138.577          estimate D2E/DX2                !
 ! D97   D(4,6,18,16)         -117.0885         estimate D2E/DX2                !
 ! D98   D(4,6,18,19)          130.2641         estimate D2E/DX2                !
 ! D99   D(4,6,18,39)          -71.4224         estimate D2E/DX2                !
 ! D100  D(4,6,18,40)           -5.7946         estimate D2E/DX2                !
 ! D101  D(8,6,18,16)           -5.4688         estimate D2E/DX2                !
 ! D102  D(8,6,18,19)         -118.1162         estimate D2E/DX2                !
 ! D103  D(8,6,18,39)           40.1973         estimate D2E/DX2                !
 ! D104  D(8,6,18,40)          105.8251         estimate D2E/DX2                !
 ! D105  D(6,7,13,8)             4.3314         estimate D2E/DX2                !
 ! D106  D(6,7,13,10)           91.4178         estimate D2E/DX2                !
 ! D107  D(6,7,13,16)          -73.3642         estimate D2E/DX2                !
 ! D108  D(6,7,13,36)         -177.5665         estimate D2E/DX2                !
 ! D109  D(6,7,13,37)         -178.0924         estimate D2E/DX2                !
 ! D110  D(6,7,13,39)         -124.0313         estimate D2E/DX2                !
 ! D111  D(18,7,13,8)           81.6189         estimate D2E/DX2                !
 ! D112  D(18,7,13,10)         168.7053         estimate D2E/DX2                !
 ! D113  D(18,7,13,16)           3.9232         estimate D2E/DX2                !
 ! D114  D(18,7,13,36)        -100.2791         estimate D2E/DX2                !
 ! D115  D(18,7,13,37)        -100.8049         estimate D2E/DX2                !
 ! D116  D(18,7,13,39)         -46.7438         estimate D2E/DX2                !
 ! D117  D(13,7,18,16)          -4.3698         estimate D2E/DX2                !
 ! D118  D(13,7,18,19)         161.411          estimate D2E/DX2                !
 ! D119  D(13,7,18,20)        -108.5494         estimate D2E/DX2                !
 ! D120  D(13,7,18,39)          46.4712         estimate D2E/DX2                !
 ! D121  D(13,7,18,40)          96.9959         estimate D2E/DX2                !
 ! D122  D(6,8,9,1)            -47.8971         estimate D2E/DX2                !
 ! D123  D(6,8,9,2)           -101.002          estimate D2E/DX2                !
 ! D124  D(6,8,9,4)              6.6696         estimate D2E/DX2                !
 ! D125  D(6,8,9,10)            89.828          estimate D2E/DX2                !
 ! D126  D(6,8,9,12)          -106.9222         estimate D2E/DX2                !
 ! D127  D(6,8,9,26)           176.0011         estimate D2E/DX2                !
 ! D128  D(6,8,9,27)           173.7035         estimate D2E/DX2                !
 ! D129  D(13,8,9,1)          -135.6683         estimate D2E/DX2                !
 ! D130  D(13,8,9,2)           171.2268         estimate D2E/DX2                !
 ! D131  D(13,8,9,4)           -81.1016         estimate D2E/DX2                !
 ! D132  D(13,8,9,10)            2.0569         estimate D2E/DX2                !
 ! D133  D(13,8,9,12)          165.3066         estimate D2E/DX2                !
 ! D134  D(13,8,9,26)           88.2299         estimate D2E/DX2                !
 ! D135  D(13,8,9,27)           85.9323         estimate D2E/DX2                !
 ! D136  D(6,8,13,7)            -4.5778         estimate D2E/DX2                !
 ! D137  D(6,8,13,10)          -83.2984         estimate D2E/DX2                !
 ! D138  D(6,8,13,16)           88.4489         estimate D2E/DX2                !
 ! D139  D(6,8,13,17)          174.831          estimate D2E/DX2                !
 ! D140  D(6,8,13,36)          177.3656         estimate D2E/DX2                !
 ! D141  D(6,8,13,39)           76.2888         estimate D2E/DX2                !
 ! D142  D(9,8,13,7)            76.5583         estimate D2E/DX2                !
 ! D143  D(9,8,13,10)           -2.1623         estimate D2E/DX2                !
 ! D144  D(9,8,13,16)          169.585          estimate D2E/DX2                !
 ! D145  D(9,8,13,17)         -104.0329         estimate D2E/DX2                !
 ! D146  D(9,8,13,36)         -101.4983         estimate D2E/DX2                !
 ! D147  D(9,8,13,39)          157.4249         estimate D2E/DX2                !
 ! D148  D(1,9,10,13)           90.435          estimate D2E/DX2                !
 ! D149  D(1,9,10,24)          171.1021         estimate D2E/DX2                !
 ! D150  D(2,9,10,13)          -44.6498         estimate D2E/DX2                !
 ! D151  D(2,9,10,24)           36.0173         estimate D2E/DX2                !
 ! D152  D(4,9,10,13)           93.7388         estimate D2E/DX2                !
 ! D153  D(4,9,10,24)          174.4059         estimate D2E/DX2                !
 ! D154  D(8,9,10,13)           -2.2322         estimate D2E/DX2                !
 ! D155  D(8,9,10,24)           78.4349         estimate D2E/DX2                !
 ! D156  D(11,9,10,13)        -176.5624         estimate D2E/DX2                !
 ! D157  D(11,9,10,24)         -95.8952         estimate D2E/DX2                !
 ! D158  D(12,9,10,13)        -165.5415         estimate D2E/DX2                !
 ! D159  D(12,9,10,24)         -84.8744         estimate D2E/DX2                !
 ! D160  D(26,9,10,13)         -75.4051         estimate D2E/DX2                !
 ! D161  D(26,9,10,24)           5.2621         estimate D2E/DX2                !
 ! D162  D(27,9,10,13)        -123.7842         estimate D2E/DX2                !
 ! D163  D(27,9,10,24)         -43.117          estimate D2E/DX2                !
 ! D164  D(4,9,12,5)             3.2589         estimate D2E/DX2                !
 ! D165  D(4,9,12,14)          -87.2989         estimate D2E/DX2                !
 ! D166  D(4,9,12,15)          168.5604         estimate D2E/DX2                !
 ! D167  D(4,9,12,21)          -35.8522         estimate D2E/DX2                !
 ! D168  D(8,9,12,5)           114.4201         estimate D2E/DX2                !
 ! D169  D(8,9,12,14)           23.8623         estimate D2E/DX2                !
 ! D170  D(8,9,12,15)          -80.2784         estimate D2E/DX2                !
 ! D171  D(8,9,12,21)           75.309          estimate D2E/DX2                !
 ! D172  D(10,9,12,5)          -90.2191         estimate D2E/DX2                !
 ! D173  D(10,9,12,14)         179.2232         estimate D2E/DX2                !
 ! D174  D(10,9,12,15)          75.0824         estimate D2E/DX2                !
 ! D175  D(10,9,12,21)        -129.3302         estimate D2E/DX2                !
 ! D176  D(26,9,12,5)         -176.6404         estimate D2E/DX2                !
 ! D177  D(26,9,12,14)          92.8019         estimate D2E/DX2                !
 ! D178  D(26,9,12,15)         -11.3389         estimate D2E/DX2                !
 ! D179  D(26,9,12,21)         144.2485         estimate D2E/DX2                !
 ! D180  D(1,9,26,24)         -171.3994         estimate D2E/DX2                !
 ! D181  D(2,9,26,24)         -176.731          estimate D2E/DX2                !
 ! D182  D(4,9,26,24)          -48.1915         estimate D2E/DX2                !
 ! D183  D(8,9,26,24)          -90.5954         estimate D2E/DX2                !
 ! D184  D(10,9,26,24)          -4.9635         estimate D2E/DX2                !
 ! D185  D(11,9,26,24)          76.5687         estimate D2E/DX2                !
 ! D186  D(12,9,26,24)         131.4479         estimate D2E/DX2                !
 ! D187  D(1,9,27,15)          -21.3119         estimate D2E/DX2                !
 ! D188  D(1,9,27,28)          142.6126         estimate D2E/DX2                !
 ! D189  D(1,9,27,29)         -112.7333         estimate D2E/DX2                !
 ! D190  D(2,9,27,15)           22.0736         estimate D2E/DX2                !
 ! D191  D(2,9,27,28)         -174.0019         estimate D2E/DX2                !
 ! D192  D(2,9,27,29)          -69.3478         estimate D2E/DX2                !
 ! D193  D(4,9,27,15)          -96.7046         estimate D2E/DX2                !
 ! D194  D(4,9,27,28)           67.2199         estimate D2E/DX2                !
 ! D195  D(4,9,27,29)          171.874          estimate D2E/DX2                !
 ! D196  D(8,9,27,15)          104.3688         estimate D2E/DX2                !
 ! D197  D(8,9,27,28)          -91.7068         estimate D2E/DX2                !
 ! D198  D(8,9,27,29)           12.9473         estimate D2E/DX2                !
 ! D199  D(10,9,27,15)        -173.7104         estimate D2E/DX2                !
 ! D200  D(10,9,27,28)          -9.786          estimate D2E/DX2                !
 ! D201  D(10,9,27,29)          94.8682         estimate D2E/DX2                !
 ! D202  D(9,10,13,7)          -84.5696         estimate D2E/DX2                !
 ! D203  D(9,10,13,8)            2.2032         estimate D2E/DX2                !
 ! D204  D(9,10,13,16)         -25.2058         estimate D2E/DX2                !
 ! D205  D(9,10,13,17)          84.5815         estimate D2E/DX2                !
 ! D206  D(9,10,13,36)         139.8132         estimate D2E/DX2                !
 ! D207  D(9,10,13,37)        -165.9391         estimate D2E/DX2                !
 ! D208  D(9,10,13,39)        -151.6918         estimate D2E/DX2                !
 ! D209  D(24,10,13,7)         179.505          estimate D2E/DX2                !
 ! D210  D(24,10,13,8)         -93.7222         estimate D2E/DX2                !
 ! D211  D(24,10,13,16)       -121.1312         estimate D2E/DX2                !
 ! D212  D(24,10,13,17)        -11.344          estimate D2E/DX2                !
 ! D213  D(24,10,13,36)         43.8877         estimate D2E/DX2                !
 ! D214  D(24,10,13,37)         98.1354         estimate D2E/DX2                !
 ! D215  D(24,10,13,39)        112.3828         estimate D2E/DX2                !
 ! D216  D(9,10,24,17)         -85.3669         estimate D2E/DX2                !
 ! D217  D(9,10,24,25)         175.5074         estimate D2E/DX2                !
 ! D218  D(9,10,24,26)          -5.1048         estimate D2E/DX2                !
 ! D219  D(9,10,24,28)          84.8851         estimate D2E/DX2                !
 ! D220  D(9,10,24,30)          71.1477         estimate D2E/DX2                !
 ! D221  D(9,10,24,33)         178.2731         estimate D2E/DX2                !
 ! D222  D(9,10,24,36)        -133.0834         estimate D2E/DX2                !
 ! D223  D(13,10,24,17)         10.7936         estimate D2E/DX2                !
 ! D224  D(13,10,24,25)        -88.3321         estimate D2E/DX2                !
 ! D225  D(13,10,24,26)         91.0557         estimate D2E/DX2                !
 ! D226  D(13,10,24,28)       -178.9544         estimate D2E/DX2                !
 ! D227  D(13,10,24,30)        167.3082         estimate D2E/DX2                !
 ! D228  D(13,10,24,33)        -85.5664         estimate D2E/DX2                !
 ! D229  D(13,10,24,36)        -36.9229         estimate D2E/DX2                !
 ! D230  D(9,11,12,27)         -78.1689         estimate D2E/DX2                !
 ! D231  D(1,12,21,22)         143.9886         estimate D2E/DX2                !
 ! D232  D(1,12,21,23)         -34.1388         estimate D2E/DX2                !
 ! D233  D(2,12,21,22)        -169.6605         estimate D2E/DX2                !
 ! D234  D(2,12,21,23)          12.2121         estimate D2E/DX2                !
 ! D235  D(9,12,21,22)         139.5855         estimate D2E/DX2                !
 ! D236  D(9,12,21,23)         -38.542          estimate D2E/DX2                !
 ! D237  D(11,12,21,22)         72.8748         estimate D2E/DX2                !
 ! D238  D(11,12,21,23)       -105.2527         estimate D2E/DX2                !
 ! D239  D(15,12,21,22)        -70.4245         estimate D2E/DX2                !
 ! D240  D(15,12,21,23)        111.448          estimate D2E/DX2                !
 ! D241  D(1,12,27,26)          39.7486         estimate D2E/DX2                !
 ! D242  D(1,12,27,28)         -72.6617         estimate D2E/DX2                !
 ! D243  D(1,12,27,29)         140.9898         estimate D2E/DX2                !
 ! D244  D(2,12,27,26)          -7.0933         estimate D2E/DX2                !
 ! D245  D(2,12,27,28)        -119.5035         estimate D2E/DX2                !
 ! D246  D(2,12,27,29)          94.148          estimate D2E/DX2                !
 ! D247  D(5,12,27,26)         104.3751         estimate D2E/DX2                !
 ! D248  D(5,12,27,28)          -8.0351         estimate D2E/DX2                !
 ! D249  D(5,12,27,29)        -154.3836         estimate D2E/DX2                !
 ! D250  D(14,12,27,26)       -103.7781         estimate D2E/DX2                !
 ! D251  D(14,12,27,28)        143.8117         estimate D2E/DX2                !
 ! D252  D(14,12,27,29)         -2.5368         estimate D2E/DX2                !
 ! D253  D(7,13,16,18)          -3.9068         estimate D2E/DX2                !
 ! D254  D(8,13,16,18)         -89.4771         estimate D2E/DX2                !
 ! D255  D(10,13,16,18)        -61.4497         estimate D2E/DX2                !
 ! D256  D(17,13,16,18)       -173.6236         estimate D2E/DX2                !
 ! D257  D(36,13,16,18)        133.5            estimate D2E/DX2                !
 ! D258  D(37,13,16,18)         77.6509         estimate D2E/DX2                !
 ! D259  D(8,13,17,24)          96.2314         estimate D2E/DX2                !
 ! D260  D(10,13,17,24)         11.3114         estimate D2E/DX2                !
 ! D261  D(16,13,17,24)        174.5776         estimate D2E/DX2                !
 ! D262  D(37,13,17,24)        -81.3661         estimate D2E/DX2                !
 ! D263  D(39,13,17,24)       -136.6005         estimate D2E/DX2                !
 ! D264  D(7,13,36,24)        -120.0643         estimate D2E/DX2                !
 ! D265  D(7,13,36,25)         -77.2322         estimate D2E/DX2                !
 ! D266  D(7,13,36,35)        -168.5107         estimate D2E/DX2                !
 ! D267  D(7,13,36,38)          80.0915         estimate D2E/DX2                !
 ! D268  D(8,13,36,24)          57.1291         estimate D2E/DX2                !
 ! D269  D(8,13,36,25)          99.9613         estimate D2E/DX2                !
 ! D270  D(8,13,36,35)           8.6828         estimate D2E/DX2                !
 ! D271  D(8,13,36,38)        -102.715          estimate D2E/DX2                !
 ! D272  D(10,13,36,24)        -37.3328         estimate D2E/DX2                !
 ! D273  D(10,13,36,25)          5.4994         estimate D2E/DX2                !
 ! D274  D(10,13,36,35)        -85.7792         estimate D2E/DX2                !
 ! D275  D(10,13,36,38)        162.8231         estimate D2E/DX2                !
 ! D276  D(16,13,36,24)        138.1006         estimate D2E/DX2                !
 ! D277  D(16,13,36,25)       -179.0673         estimate D2E/DX2                !
 ! D278  D(16,13,36,35)         89.6542         estimate D2E/DX2                !
 ! D279  D(16,13,36,38)        -21.7436         estimate D2E/DX2                !
 ! D280  D(39,13,36,24)       -178.823          estimate D2E/DX2                !
 ! D281  D(39,13,36,25)       -135.9909         estimate D2E/DX2                !
 ! D282  D(39,13,36,35)        132.7306         estimate D2E/DX2                !
 ! D283  D(39,13,36,38)         21.3328         estimate D2E/DX2                !
 ! D284  D(7,13,39,18)          38.8448         estimate D2E/DX2                !
 ! D285  D(7,13,39,38)        -159.6607         estimate D2E/DX2                !
 ! D286  D(7,13,39,40)          -5.7118         estimate D2E/DX2                !
 ! D287  D(7,13,39,41)         132.3214         estimate D2E/DX2                !
 ! D288  D(7,13,39,42)          43.5442         estimate D2E/DX2                !
 ! D289  D(8,13,39,18)         -42.4778         estimate D2E/DX2                !
 ! D290  D(8,13,39,38)         119.0168         estimate D2E/DX2                !
 ! D291  D(8,13,39,40)         -87.0343         estimate D2E/DX2                !
 ! D292  D(8,13,39,41)          50.9988         estimate D2E/DX2                !
 ! D293  D(8,13,39,42)         -37.7784         estimate D2E/DX2                !
 ! D294  D(10,13,39,18)        103.8173         estimate D2E/DX2                !
 ! D295  D(10,13,39,38)        -94.6882         estimate D2E/DX2                !
 ! D296  D(10,13,39,40)         59.2608         estimate D2E/DX2                !
 ! D297  D(10,13,39,41)       -162.7061         estimate D2E/DX2                !
 ! D298  D(10,13,39,42)        108.5167         estimate D2E/DX2                !
 ! D299  D(17,13,39,18)       -132.3197         estimate D2E/DX2                !
 ! D300  D(17,13,39,38)         29.1748         estimate D2E/DX2                !
 ! D301  D(17,13,39,40)       -176.8762         estimate D2E/DX2                !
 ! D302  D(17,13,39,41)        -38.8431         estimate D2E/DX2                !
 ! D303  D(17,13,39,42)       -127.6203         estimate D2E/DX2                !
 ! D304  D(36,13,39,18)       -177.5183         estimate D2E/DX2                !
 ! D305  D(36,13,39,38)        -16.0238         estimate D2E/DX2                !
 ! D306  D(36,13,39,40)        137.9252         estimate D2E/DX2                !
 ! D307  D(36,13,39,41)        -84.0417         estimate D2E/DX2                !
 ! D308  D(36,13,39,42)       -172.8189         estimate D2E/DX2                !
 ! D309  D(13,16,18,6)          56.2803         estimate D2E/DX2                !
 ! D310  D(13,16,18,7)           4.5653         estimate D2E/DX2                !
 ! D311  D(13,16,18,19)       -168.089          estimate D2E/DX2                !
 ! D312  D(13,16,18,20)        106.585          estimate D2E/DX2                !
 ! D313  D(13,16,18,40)        -79.0305         estimate D2E/DX2                !
 ! D314  D(13,17,24,10)        -10.8188         estimate D2E/DX2                !
 ! D315  D(13,17,24,25)         75.4168         estimate D2E/DX2                !
 ! D316  D(13,17,24,26)        -93.7139         estimate D2E/DX2                !
 ! D317  D(13,17,24,30)       -164.9621         estimate D2E/DX2                !
 ! D318  D(13,17,24,32)       -179.9078         estimate D2E/DX2                !
 ! D319  D(13,17,24,33)        126.857          estimate D2E/DX2                !
 ! D320  D(6,18,19,42)         176.6436         estimate D2E/DX2                !
 ! D321  D(7,18,19,42)         -97.202          estimate D2E/DX2                !
 ! D322  D(16,18,19,42)         68.6349         estimate D2E/DX2                !
 ! D323  D(20,18,19,42)        168.5055         estimate D2E/DX2                !
 ! D324  D(39,18,19,42)         15.0594         estimate D2E/DX2                !
 ! D325  D(40,18,19,42)        -34.0855         estimate D2E/DX2                !
 ! D326  D(6,18,39,13)          -0.951          estimate D2E/DX2                !
 ! D327  D(6,18,39,37)          43.0008         estimate D2E/DX2                !
 ! D328  D(6,18,39,38)         -43.9162         estimate D2E/DX2                !
 ! D329  D(6,18,39,41)        -143.904          estimate D2E/DX2                !
 ! D330  D(6,18,39,42)        -177.4706         estimate D2E/DX2                !
 ! D331  D(7,18,39,13)         -44.8621         estimate D2E/DX2                !
 ! D332  D(7,18,39,37)          -0.9103         estimate D2E/DX2                !
 ! D333  D(7,18,39,38)         -87.8273         estimate D2E/DX2                !
 ! D334  D(7,18,39,41)         172.1849         estimate D2E/DX2                !
 ! D335  D(7,18,39,42)         138.6184         estimate D2E/DX2                !
 ! D336  D(19,18,39,13)        162.9697         estimate D2E/DX2                !
 ! D337  D(19,18,39,37)       -153.0785         estimate D2E/DX2                !
 ! D338  D(19,18,39,38)        120.0045         estimate D2E/DX2                !
 ! D339  D(19,18,39,41)         20.0167         estimate D2E/DX2                !
 ! D340  D(19,18,39,42)        -13.5498         estimate D2E/DX2                !
 ! D341  D(20,18,39,13)         65.9282         estimate D2E/DX2                !
 ! D342  D(20,18,39,37)        109.8799         estimate D2E/DX2                !
 ! D343  D(20,18,39,38)         22.963          estimate D2E/DX2                !
 ! D344  D(20,18,39,41)        -77.0249         estimate D2E/DX2                !
 ! D345  D(20,18,39,42)       -110.5914         estimate D2E/DX2                !
 ! D346  D(6,18,40,42)        -177.026          estimate D2E/DX2                !
 ! D347  D(7,18,40,42)        -173.4435         estimate D2E/DX2                !
 ! D348  D(16,18,40,42)        -70.0124         estimate D2E/DX2                !
 ! D349  D(19,18,40,42)         33.6964         estimate D2E/DX2                !
 ! D350  D(20,18,40,42)         96.989          estimate D2E/DX2                !
 ! D351  D(18,19,42,39)        -14.8782         estimate D2E/DX2                !
 ! D352  D(18,19,42,40)         33.7435         estimate D2E/DX2                !
 ! D353  D(18,19,42,41)        -62.9089         estimate D2E/DX2                !
 ! D354  D(18,19,42,43)       -146.8356         estimate D2E/DX2                !
 ! D355  D(18,19,42,44)        141.2036         estimate D2E/DX2                !
 ! D356  D(5,21,23,1)          -22.2585         estimate D2E/DX2                !
 ! D357  D(12,21,23,1)          34.5233         estimate D2E/DX2                !
 ! D358  D(14,21,23,1)          90.0149         estimate D2E/DX2                !
 ! D359  D(22,21,23,1)        -144.3922         estimate D2E/DX2                !
 ! D360  D(10,24,26,9)           5.0777         estimate D2E/DX2                !
 ! D361  D(10,24,26,27)         78.9155         estimate D2E/DX2                !
 ! D362  D(17,24,26,9)         102.9168         estimate D2E/DX2                !
 ! D363  D(17,24,26,27)        176.7546         estimate D2E/DX2                !
 ! D364  D(28,24,26,9)         -75.736          estimate D2E/DX2                !
 ! D365  D(28,24,26,27)         -1.8982         estimate D2E/DX2                !
 ! D366  D(30,24,26,9)        -122.2118         estimate D2E/DX2                !
 ! D367  D(30,24,26,27)        -48.374          estimate D2E/DX2                !
 ! D368  D(32,24,26,9)        -170.8152         estimate D2E/DX2                !
 ! D369  D(32,24,26,27)        -96.9774         estimate D2E/DX2                !
 ! D370  D(33,24,26,9)        -178.373          estimate D2E/DX2                !
 ! D371  D(33,24,26,27)       -104.5352         estimate D2E/DX2                !
 ! D372  D(36,24,26,9)          87.9881         estimate D2E/DX2                !
 ! D373  D(36,24,26,27)        161.8259         estimate D2E/DX2                !
 ! D374  D(10,24,28,27)        -82.4592         estimate D2E/DX2                !
 ! D375  D(25,24,28,27)       -167.6046         estimate D2E/DX2                !
 ! D376  D(26,24,28,27)          1.7036         estimate D2E/DX2                !
 ! D377  D(32,24,28,27)         87.1763         estimate D2E/DX2                !
 ! D378  D(33,24,28,27)        140.7618         estimate D2E/DX2                !
 ! D379  D(36,24,28,27)       -157.8046         estimate D2E/DX2                !
 ! D380  D(10,24,30,29)        -75.0942         estimate D2E/DX2                !
 ! D381  D(10,24,30,31)        104.4697         estimate D2E/DX2                !
 ! D382  D(17,24,30,29)         72.6702         estimate D2E/DX2                !
 ! D383  D(17,24,30,31)       -107.7659         estimate D2E/DX2                !
 ! D384  D(25,24,30,29)       -169.601          estimate D2E/DX2                !
 ! D385  D(25,24,30,31)          9.9629         estimate D2E/DX2                !
 ! D386  D(26,24,30,29)          1.9845         estimate D2E/DX2                !
 ! D387  D(26,24,30,31)       -178.4516         estimate D2E/DX2                !
 ! D388  D(33,24,30,29)        147.1184         estimate D2E/DX2                !
 ! D389  D(33,24,30,31)        -33.3177         estimate D2E/DX2                !
 ! D390  D(36,24,30,29)        144.0572         estimate D2E/DX2                !
 ! D391  D(36,24,30,31)        -36.3788         estimate D2E/DX2                !
 ! D392  D(10,24,33,34)        -85.3042         estimate D2E/DX2                !
 ! D393  D(10,24,33,35)         87.2342         estimate D2E/DX2                !
 ! D394  D(17,24,33,34)        175.4362         estimate D2E/DX2                !
 ! D395  D(17,24,33,35)        -12.0253         estimate D2E/DX2                !
 ! D396  D(26,24,33,34)         99.766          estimate D2E/DX2                !
 ! D397  D(26,24,33,35)        -87.6956         estimate D2E/DX2                !
 ! D398  D(28,24,33,34)          0.8741         estimate D2E/DX2                !
 ! D399  D(28,24,33,35)        173.4126         estimate D2E/DX2                !
 ! D400  D(30,24,33,34)         41.0619         estimate D2E/DX2                !
 ! D401  D(30,24,33,35)       -146.3997         estimate D2E/DX2                !
 ! D402  D(36,24,33,34)       -141.1309         estimate D2E/DX2                !
 ! D403  D(36,24,33,35)         31.4076         estimate D2E/DX2                !
 ! D404  D(10,24,36,13)         35.5152         estimate D2E/DX2                !
 ! D405  D(10,24,36,35)       -168.7542         estimate D2E/DX2                !
 ! D406  D(10,24,36,37)        -12.6299         estimate D2E/DX2                !
 ! D407  D(10,24,36,38)        120.9559         estimate D2E/DX2                !
 ! D408  D(26,24,36,13)        -45.4776         estimate D2E/DX2                !
 ! D409  D(26,24,36,35)        110.253          estimate D2E/DX2                !
 ! D410  D(26,24,36,37)        -93.6227         estimate D2E/DX2                !
 ! D411  D(26,24,36,38)         39.9631         estimate D2E/DX2                !
 ! D412  D(28,24,36,13)        108.3592         estimate D2E/DX2                !
 ! D413  D(28,24,36,35)        -95.9101         estimate D2E/DX2                !
 ! D414  D(28,24,36,37)         60.2141         estimate D2E/DX2                !
 ! D415  D(28,24,36,38)       -166.2            estimate D2E/DX2                !
 ! D416  D(30,24,36,13)       -175.3437         estimate D2E/DX2                !
 ! D417  D(30,24,36,35)        -19.6131         estimate D2E/DX2                !
 ! D418  D(30,24,36,37)        136.5111         estimate D2E/DX2                !
 ! D419  D(30,24,36,38)        -89.903          estimate D2E/DX2                !
 ! D420  D(32,24,36,13)       -138.7823         estimate D2E/DX2                !
 ! D421  D(32,24,36,35)         16.9483         estimate D2E/DX2                !
 ! D422  D(32,24,36,37)        173.0726         estimate D2E/DX2                !
 ! D423  D(32,24,36,38)        -53.3416         estimate D2E/DX2                !
 ! D424  D(33,24,36,13)       -178.5971         estimate D2E/DX2                !
 ! D425  D(33,24,36,35)        -22.8664         estimate D2E/DX2                !
 ! D426  D(33,24,36,37)        133.2578         estimate D2E/DX2                !
 ! D427  D(33,24,36,38)        -93.1563         estimate D2E/DX2                !
 ! D428  D(36,25,33,32)         85.6238         estimate D2E/DX2                !
 ! D429  D(36,25,33,34)       -151.5117         estimate D2E/DX2                !
 ! D430  D(36,25,33,35)        -28.509          estimate D2E/DX2                !
 ! D431  D(33,25,36,13)       -124.6277         estimate D2E/DX2                !
 ! D432  D(33,25,36,17)        -67.4139         estimate D2E/DX2                !
 ! D433  D(33,25,36,35)         21.9277         estimate D2E/DX2                !
 ! D434  D(33,25,36,37)        179.4333         estimate D2E/DX2                !
 ! D435  D(33,25,36,38)         93.236          estimate D2E/DX2                !
 ! D436  D(24,26,27,11)        -83.666          estimate D2E/DX2                !
 ! D437  D(24,26,27,12)       -137.4204         estimate D2E/DX2                !
 ! D438  D(24,26,27,15)        169.6877         estimate D2E/DX2                !
 ! D439  D(24,26,27,28)          1.9652         estimate D2E/DX2                !
 ! D440  D(24,26,27,29)         90.4344         estimate D2E/DX2                !
 ! D441  D(9,27,28,24)          56.5639         estimate D2E/DX2                !
 ! D442  D(9,27,28,30)         136.0792         estimate D2E/DX2                !
 ! D443  D(11,27,28,24)        107.3734         estimate D2E/DX2                !
 ! D444  D(11,27,28,30)       -173.1113         estimate D2E/DX2                !
 ! D445  D(12,27,28,24)        109.7758         estimate D2E/DX2                !
 ! D446  D(12,27,28,30)       -170.7088         estimate D2E/DX2                !
 ! D447  D(15,27,28,24)       -157.1687         estimate D2E/DX2                !
 ! D448  D(15,27,28,30)        -77.6534         estimate D2E/DX2                !
 ! D449  D(26,27,28,24)         -2.0135         estimate D2E/DX2                !
 ! D450  D(26,27,28,30)         77.5018         estimate D2E/DX2                !
 ! D451  D(29,27,28,24)        -94.9638         estimate D2E/DX2                !
 ! D452  D(29,27,28,30)        -15.4485         estimate D2E/DX2                !
 ! D453  D(9,27,29,30)         -91.6186         estimate D2E/DX2                !
 ! D454  D(11,27,29,30)         83.2137         estimate D2E/DX2                !
 ! D455  D(12,27,29,30)        173.5596         estimate D2E/DX2                !
 ! D456  D(15,27,29,30)        170.3064         estimate D2E/DX2                !
 ! D457  D(26,27,29,30)        -83.1638         estimate D2E/DX2                !
 ! D458  D(28,27,29,30)         16.2108         estimate D2E/DX2                !
 ! D459  D(27,28,30,29)         18.911          estimate D2E/DX2                !
 ! D460  D(27,28,30,31)        138.935          estimate D2E/DX2                !
 ! D461  D(27,28,30,32)        -90.6607         estimate D2E/DX2                !
 ! D462  D(27,29,30,24)         38.5856         estimate D2E/DX2                !
 ! D463  D(27,29,30,28)        -18.3526         estimate D2E/DX2                !
 ! D464  D(27,29,30,31)       -141.1193         estimate D2E/DX2                !
 ! D465  D(27,29,30,32)         94.091          estimate D2E/DX2                !
 ! D466  D(28,30,32,33)        -61.495          estimate D2E/DX2                !
 ! D467  D(29,30,32,33)       -171.444          estimate D2E/DX2                !
 ! D468  D(31,30,32,33)         67.8012         estimate D2E/DX2                !
 ! D469  D(30,32,33,25)         67.4476         estimate D2E/DX2                !
 ! D470  D(30,32,33,34)        -52.5953         estimate D2E/DX2                !
 ! D471  D(30,32,33,35)        178.5941         estimate D2E/DX2                !
 ! D472  D(24,33,35,36)        -32.5928         estimate D2E/DX2                !
 ! D473  D(25,33,35,36)         25.6605         estimate D2E/DX2                !
 ! D474  D(32,33,35,36)        -93.2322         estimate D2E/DX2                !
 ! D475  D(34,33,35,36)        141.2026         estimate D2E/DX2                !
 ! D476  D(33,35,36,13)         70.7581         estimate D2E/DX2                !
 ! D477  D(33,35,36,17)         80.5768         estimate D2E/DX2                !
 ! D478  D(33,35,36,24)         27.6803         estimate D2E/DX2                !
 ! D479  D(33,35,36,25)        -24.0171         estimate D2E/DX2                !
 ! D480  D(33,35,36,37)        -85.0889         estimate D2E/DX2                !
 ! D481  D(33,35,36,38)       -170.0926         estimate D2E/DX2                !
 ! D482  D(17,36,37,39)         74.4756         estimate D2E/DX2                !
 ! D483  D(24,36,37,39)        127.7898         estimate D2E/DX2                !
 ! D484  D(25,36,37,39)        177.126          estimate D2E/DX2                !
 ! D485  D(35,36,37,39)       -121.2761         estimate D2E/DX2                !
 ! D486  D(38,36,37,39)        -38.6901         estimate D2E/DX2                !
 ! D487  D(13,36,38,39)        -21.8065         estimate D2E/DX2                !
 ! D488  D(17,36,38,39)        -82.5333         estimate D2E/DX2                !
 ! D489  D(24,36,38,39)        -99.3896         estimate D2E/DX2                !
 ! D490  D(25,36,38,39)        117.3238         estimate D2E/DX2                !
 ! D491  D(35,36,38,39)       -170.8142         estimate D2E/DX2                !
 ! D492  D(37,36,38,39)         34.8249         estimate D2E/DX2                !
 ! D493  D(36,37,39,16)        -69.0876         estimate D2E/DX2                !
 ! D494  D(36,37,39,18)       -120.9598         estimate D2E/DX2                !
 ! D495  D(36,37,39,38)         30.9528         estimate D2E/DX2                !
 ! D496  D(36,37,39,40)       -174.1149         estimate D2E/DX2                !
 ! D497  D(36,37,39,41)         71.8181         estimate D2E/DX2                !
 ! D498  D(36,37,39,42)        170.4239         estimate D2E/DX2                !
 ! D499  D(36,38,39,13)         18.6302         estimate D2E/DX2                !
 ! D500  D(36,38,39,16)         73.9083         estimate D2E/DX2                !
 ! D501  D(36,38,39,18)         57.4388         estimate D2E/DX2                !
 ! D502  D(36,38,39,37)        -33.9738         estimate D2E/DX2                !
 ! D503  D(36,38,39,40)        -96.2536         estimate D2E/DX2                !
 ! D504  D(36,38,39,41)        166.04           estimate D2E/DX2                !
 ! D505  D(36,38,39,42)        178.4258         estimate D2E/DX2                !
 ! D506  D(13,39,42,19)          8.2056         estimate D2E/DX2                !
 ! D507  D(13,39,42,43)         99.6218         estimate D2E/DX2                !
 ! D508  D(13,39,42,44)       -160.6325         estimate D2E/DX2                !
 ! D509  D(16,39,42,19)        -33.2506         estimate D2E/DX2                !
 ! D510  D(16,39,42,43)         58.1656         estimate D2E/DX2                !
 ! D511  D(16,39,42,44)        157.9114         estimate D2E/DX2                !
 ! D512  D(18,39,42,19)         12.8179         estimate D2E/DX2                !
 ! D513  D(18,39,42,43)        104.2341         estimate D2E/DX2                !
[...]
 75700,-0.05046560,0.00428378,-0.00752001,0.80525776,0.00051897,-0.0000
 9838,-0.00013078,0.00013621,-0.00003542,0.00006965,-0.00017170,0.00020
 669,-0.00042094,-0.00002864,0.00006104,0.00023198,-0.00008433,0.000064
 21,0.00000027,0.00075901,-0.00030406,-0.00023907,0.00019128,-0.0008553
 1,0.00048859,0.00016755,-0.00002929,-0.00015215,-0.00068699,-0.0005982
 4,0.00028570,-0.00016628,0.00006811,0.00035432,-0.00010239,0.00004061,
 -0.00010109,0.00022781,0.00040944,0.00012591,0.00051764,0.00041397,0.0
 0006411,-0.00000992,0.00006454,-0.00011108,-0.00008363,-0.00005992,-0.
 00003409,0.00106661,-0.00017498,-0.00025264,0.00006727,0.00003282,-0.0
 0017243,0.00115553,0.00201057,0.00037783,0.00502632,-0.00741255,0.0003
 6659,-0.00043926,0.00094961,-0.00101173,0.00017784,-0.00045459,0.00016
 877,-0.00014749,0.00035459,-0.00016809,-0.00006004,0.00004217,-0.00006
 782,-0.00042509,-0.00007069,0.00000674,0.00010705,0.00012454,0.0000098
 4,0.00018801,-0.00000914,-0.00001834,0.00006829,0.00008240,0.00021355,
 0.00009688,0.00002648,0.00000931,0.00000081,-0.00001026,-0.00004880,0.
 00029296,0.00004650,-0.00021991,-0.00023601,-0.00004290,0.00023856,0.0
 0004130,-0.00005269,-0.00002895,0.00025517,0.00002766,-0.00022079,-0.0
 0021610,-0.00001003,0.00023848,-0.00007419,-0.00016384,0.00002665,-0.0
 0003439,-0.00022642,0.00011420,0.00039190,0.00157828,-0.00006072,-0.00
 079046,-0.00014002,0.00014495,0.01108099,-0.00623072,0.00176859,0.0065
 1924,0.00723481,-0.00204410,-0.00903181,0.00156740,0.00151044,0.001582
 51,-0.05033763,0.00143486,-0.46557407,0.37004016,0.00001480,0.00004212
 ,-0.00002612,-0.00000796,0.00000268,0.00000260,-0.00011624,0.00006727,
 -0.00008661,0.00002516,0.00005761,0.00007595,0.00001307,0.00002545,0.0
 0000145,0.00085335,-0.00030904,0.00005992,0.00007143,-0.00084044,0.000
 76035,-0.00000790,0.00010784,-0.00025024,0.00001194,-0.00011373,0.0000
 8363,-0.00020231,-0.00001293,0.00013496,-0.00001673,-0.00000435,-0.000
 02052,-0.00000936,0.00004309,-0.00001177,0.00028241,0.00045815,-0.0001
 4361,-0.00000003,0.00003250,-0.00005339,-0.00005871,0.00001290,-0.0000
 6256,0.00082605,0.00056396,-0.00004371,0.00006896,-0.00004467,-0.00007
 055,-0.00027464,-0.00006908,-0.00056742,-0.00618838,0.00599515,-0.0030
 6298,-0.00062300,0.00010912,-0.00118925,0.00002930,-0.00024696,0.00012
 021,-0.00007197,0.00018146,-0.00008484,0.00000965,0.00000351,-0.000036
 93,-0.00058146,0.00023990,-0.00033475,0.00005612,0.00000615,0.00003850
 ,0.00008195,-0.00003997,0.00001913,0.00018338,-0.00005280,0.00015674,-
 0.00000634,0.00000253,0.00009757,-0.00002206,-0.00000415,-0.00005480,0
 .00018336,0.00003662,-0.00002234,-0.00010035,-0.00002800,0.00010510,-0
 .00003219,-0.00001732,-0.00005095,0.00022591,-0.00002176,-0.00002612,-
 0.00014481,-0.00001633,0.00015772,-0.00016360,-0.00004091,0.00000023,0
 .00109555,0.00025554,0.00050357,-0.00013695,0.00040465,0.00024335,-0.0
 0015931,-0.00099762,-0.00056268,-0.00384443,0.00062842,0.00162286,0.00
 717871,-0.00488036,0.00457088,0.00817328,0.00389182,-0.00084665,-0.010
 14064,0.00272391,-0.04413515,-0.26419715,0.16846756,0.19190285,-0.0002
 4183,0.00013873,0.00002051,-0.00008580,0.00001024,-0.00001417,-0.00005
 608,-0.00011260,0.00017321,0.00004631,-0.00003581,-0.00025801,0.000023
 04,-0.00004555,-0.00000658,0.00050261,-0.00018102,0.00000145,-0.000250
 91,0.00023838,0.00032281,-0.00004858,-0.00004124,-0.00000818,0.0002994
 5,0.00009968,-0.00021315,-0.00017807,0.00005462,-0.00004659,0.00005649
 ,0.00005293,0.00002148,-0.00010820,-0.00017741,-0.00001903,-0.00031216
 ,0.00062509,0.00071004,0.00000075,-0.00005207,0.00009029,0.00008845,0.
 00001387,0.00006811,0.00097625,0.00044197,-0.00005277,-0.00010775,-0.0
 0010772,0.00012078,-0.00032223,-0.00061379,-0.00278854,0.00040994,0.00
 589565,-0.00646466,0.00009692,0.00017510,0.00041021,-0.00014552,0.0004
 9838,-0.00020397,0.00015561,-0.00037966,0.00017862,0.00004861,-0.00003
 226,0.00006668,0.00201578,0.00011166,-0.00013292,-0.00013947,-0.000059
 81,0.00002403,-0.00017863,0.00001427,-0.00003795,-0.00006698,-0.000085
 41,-0.00029479,-0.00019715,-0.00001451,0.00018724,0.00004480,0.0000029
 0,0.00016701,-0.00050177,-0.00004470,0.00006524,0.00027452,0.00005950,
 -0.00030057,-0.00024927,0.00015777,0.00000644,-0.00029132,-0.00012805,
 0.00037343,0.00028059,0.00003604,-0.00032286,-0.00010038,0.00014642,0.
 00001695,0.00044782,-0.00001698,0.00050563,-0.00068842,-0.00051226,-0.
 00180335,-0.00041448,-0.00039070,-0.00008515,-0.00245789,0.00098425,0.
 00592867,-0.00351397,-0.00026954,-0.00882437,0.00209892,0.00143047,-0.
 00368484,-0.05869836,-0.00379733,-0.01484065,0.01701062,-0.00163108,0.
 00763329,0.35721623,0.00002490,0.00001461,0.00003148,-0.00000297,-0.00
 000997,0.00000248,-0.00001716,-0.00007608,0.00003213,-0.00005213,0.000
 04891,-0.00004591,-0.00000513,-0.00002812,-0.00000710,0.00046635,0.000
 30958,-0.00046957,-0.00057897,-0.00003161,0.00035218,0.00004452,-0.000
 03416,0.00006942,-0.00005584,-0.00000306,-0.00002053,-0.00012578,-0.00
 012138,-0.00000361,0.00001652,0.00004292,0.00000519,0.00000129,-0.0000
 2161,0.00001863,-0.00039481,-0.00041411,0.00053739,-0.00000385,-0.0000
 2742,0.00004244,0.00004383,-0.00000875,0.00004343,-0.00070380,-0.00068
 105,-0.00084983,-0.00013170,-0.00001605,0.00002494,0.00488329,0.001539
 55,-0.00093657,-0.00223557,0.00743590,-0.00919334,-0.00015754,-0.00012
 065,0.00060134,-0.00003727,0.00025530,-0.00011780,0.00007344,-0.000184
 37,0.00008571,-0.00000773,0.00000356,0.00002282,0.00128072,0.00008714,
 -0.00018254,-0.00004877,-0.00003917,0.00001318,-0.00009450,0.00002104,
 -0.00002654,-0.00005957,-0.00003782,-0.00018609,-0.00010303,-0.0000317
 2,0.00011705,0.00003360,0.00000056,0.00011327,-0.00030369,-0.00002686,
 -0.00004034,0.00012909,0.00003400,-0.00014822,-0.00014631,0.00009439,0
 .00003186,-0.00009536,-0.00004759,0.00017333,0.00014132,0.00002452,-0.
 00016860,0.00003282,0.00003884,0.00000974,-0.00041457,-0.00033966,0.00
 008123,-0.00006448,-0.00079428,-0.00066888,-0.00040014,0.00057733,0.00
 011252,0.00404444,-0.00116354,-0.00157661,0.00573157,-0.00174994,0.001
 69450,-0.00379492,-0.00175302,0.00177333,-0.00350710,-0.02924285,0.011
 98277,0.00250053,-0.00417760,-0.01615771,0.08253986,0.08889458,-0.0006
 0654,0.00013622,0.00005944,-0.00015413,0.00003543,-0.00004762,0.000072
 67,-0.00030303,0.00035882,0.00016860,-0.00000996,-0.00032305,0.0000541
 1,-0.00009397,-0.00000829,0.00078368,-0.00026515,-0.00092393,0.0014642
 6,-0.00016510,0.00179428,-0.00000642,0.00008805,-0.00020861,0.00072943
 ,0.00049925,-0.00061592,-0.00035524,0.00022259,0.00042202,0.00008730,0
 .00008290,0.00011694,-0.00018919,-0.00039134,-0.00005431,-0.00156129,-
 0.00069452,-0.00009985,0.00001484,-0.00009950,0.00017659,0.00011805,0.
 00005168,0.00008891,-0.00121711,0.00237395,0.00053802,-0.00019699,-0.0
 0030992,0.00016716,-0.00946390,-0.00023752,-0.00395817,0.00215154,0.00
 331287,-0.00915095,0.00161329,0.00062194,0.00059148,-0.00029598,0.0009
 0607,-0.00036344,0.00028490,-0.00069582,0.00033161,0.00009715,-0.00006
 412,0.00012687,0.00417575,0.00069203,-0.00100885,-0.00024859,-0.000142
 49,0.00007307,-0.00034406,0.00002929,-0.00004385,0.00007938,-0.0003562
 0,-0.00054053,-0.00053128,-0.00008000,0.00061415,0.00007667,0.00001179
 ,0.00034442,-0.00102952,-0.00004969,0.00008873,0.00054272,0.00010970,-
 0.00059569,-0.00063458,0.00039073,-0.00005131,-0.00016160,-0.00024994,
 0.00098330,0.00048654,0.00004824,-0.00059361,-0.00039300,0.00028237,-0
 .00003316,0.00194598,-0.00044671,0.00042046,-0.00040216,-0.00042419,-0
 .00113563,-0.00088603,-0.00021159,-0.00027086,0.00480235,-0.00068775,-
 0.00013381,-0.00157704,-0.00202864,-0.00326672,-0.00233560,-0.00484029
 ,0.00824066,-0.02516737,0.00296578,-0.04324810,0.01306084,-0.01222834,
 -0.01976725,0.48735764,0.16579411,0.88283008,0.00024625,-0.00006491,-0
 .00004698,0.00007789,-0.00002376,0.00000859,0.00003583,0.00015872,-0.0
 0022069,0.00001484,-0.00008240,0.00021318,-0.00002143,0.00005412,0.000
 00971,-0.00099022,-0.00029848,-0.00022931,0.00008358,0.00034923,-0.000
 35557,0.00001992,0.00014864,-0.00005297,-0.00025055,-0.00021909,0.0003
 1675,0.00018315,0.00013313,-0.00046494,-0.00008450,-0.00007865,-0.0000
 6009,0.00012597,0.00023301,0.00001097,0.00082552,0.00022793,0.00005269
 ,-0.00000413,0.00007123,-0.00011830,-0.00011097,-0.00001287,-0.0000798
 1,0.00018986,-0.00034048,-0.00001956,0.00006744,0.00011744,-0.00010126
 ,0.00065079,0.00001556,0.00119730,0.00296685,-0.00196228,-0.00006269,-
 0.00006767,0.00036588,-0.00022010,0.00014486,-0.00058397,0.00024736,-0
 .00018009,0.00044074,-0.00020606,-0.00003771,0.00003085,-0.00008531,-0
 .00237178,-0.00024195,0.00026716,0.00002805,0.00002084,-0.00000718,0.0
 0020186,-0.00000652,0.00005708,0.00012758,0.00013646,0.00039955,0.0002
 1591,0.00006804,-0.00024640,-0.00007354,0.00000109,-0.00020555,0.00063
 588,0.00002349,-0.00000435,-0.00030927,-0.00006321,0.00032788,0.000279
 17,-0.00013731,-0.00001613,0.00027680,0.00013100,-0.00039117,-0.000284
 59,-0.00003471,0.00033953,0.00005935,-0.00017014,-0.00001682,0.0004055
 0,0.00008618,0.00001378,-0.00000814,0.00025861,-0.00006608,0.00026486,
 0.00017014,-0.00007745,-0.00140760,0.00089483,0.00047304,0.00044153,-0
 .00154399,-0.00214682,0.00477576,0.00058429,-0.00133632,-0.03073684,0.
 02706154,0.02506131,-0.73782556,0.44724400,0.26008097,-0.00729570,-0.0
 0237931,-0.00850487,0.76489377,-0.00025986,0.00006515,0.00006079,-0.00
 007543,0.00001903,-0.00002820,0.00005066,-0.00013793,0.00021012,0.0000
 1999,0.00000227,-0.00015706,0.00003661,-0.00003812,-0.00000225,0.00019
 898,0.00019137,0.00008252,-0.00014157,0.00012278,0.00008688,-0.0000494
 8,-0.00002912,0.00005286,0.00029918,0.00024965,-0.00018936,-0.00003487
 ,-0.00004077,0.00006836,0.00005890,0.00001939,0.00004696,-0.00012206,-
 0.00021243,-0.00004296,-0.00054065,-0.00016304,-0.00001057,0.00000556,
 -0.00004265,0.00007491,0.00006425,0.00002366,0.00003692,-0.00041980,0.
 00024835,0.00011989,-0.00003521,-0.00005402,0.00009230,-0.00059263,-0.
 00060122,-0.00077650,-0.00204219,0.00197770,0.00025715,0.00017737,-0.0
 0032259,0.00041676,-0.00011075,0.00034170,-0.00013835,0.00010867,-0.00
 026354,0.00012408,0.00003566,-0.00002468,0.00005251,0.00101794,0.00011
 375,-0.00011179,-0.00002986,-0.00003504,-0.00000557,-0.00013452,0.0000
 0349,-0.00001529,-0.00004935,-0.00007050,-0.00021274,-0.00010770,-0.00
 003010,0.00009692,0.00002672,0.00000491,0.00009199,-0.00031976,-0.0000
 3140,0.00006105,0.00018260,0.00003736,-0.00018973,-0.00012001,0.000074
 02,0.00001514,-0.00016261,-0.00007264,0.00020982,0.00016679,0.00001731
 ,-0.00019293,-0.00001807,0.00010561,0.00000116,-0.00006935,0.00004987,
 -0.00005100,-0.00012626,-0.00042644,0.00002457,0.00013068,-0.00001309,
 -0.00006466,-0.00227677,0.00071867,-0.00070592,-0.00060380,-0.00341905
 ,0.00086757,0.00008205,-0.00005282,0.00033011,0.02970469,0.00092017,-0
 .01461830,0.44697295,-0.31612493,-0.16549236,0.00354081,0.00146446,0.0
 0658926,-0.47228601,0.31637736,-0.00006770,0.00001384,0.00001077,-0.00
 002001,0.00000688,-0.00000310,0.00001650,-0.00003839,0.00007429,-0.000
 00036,-0.00000422,-0.00007496,0.00000471,-0.00001683,-0.00000139,-0.00
 002185,0.00010432,0.00013127,-0.00004678,0.00010757,-0.00020478,-0.000
 00852,-0.00005958,0.00007726,0.00007646,0.00007735,-0.00008207,-0.0000
 1060,-0.00002620,0.00006351,0.00002540,0.00001644,0.00001881,-0.000036
 16,-0.00007251,-0.00000743,-0.00015956,-0.00014668,0.00001637,0.000000
 88,-0.00002361,0.00003961,0.00004055,0.00000179,0.00003163,-0.00008041
 ,-0.00011029,-0.00000166,-0.00002933,-0.00000767,0.00003610,-0.0003013
 9,0.00022692,-0.00022642,0.00056701,-0.00074744,0.00059585,0.00018954,
 -0.00015834,0.00031925,-0.00004067,0.00018554,-0.00008192,0.00005690,-
 0.00013998,0.00006519,0.00000689,-0.00000833,0.00002862,0.00059477,-0.
 00001079,0.00003249,-0.00002291,-0.00000187,-0.00000564,-0.00006445,0.
 00000894,-0.00001555,-0.00007578,-0.00001206,-0.00012246,-0.00003889,-
 0.00001752,0.00002023,0.00002011,0.00000101,0.00005286,-0.00017718,-0.
 00001532,0.00001245,0.00008965,0.00001997,-0.00009374,-0.00004364,0.00
 002858,0.00001948,-0.00012134,-0.00001908,0.00008162,0.00009515,0.0000
 1094,-0.00010960,0.00003414,0.00004587,0.00000398,-0.00031013,-0.00003
 787,-0.00012565,0.00008030,-0.00006512,-0.00010235,0.00001372,0.000237
 18,0.00013671,0.00072431,-0.00069824,-0.00018316,-0.00085830,0.0007020
 8,-0.00187778,-0.00251526,-0.00045440,-0.00023990,0.02094233,-0.012768
 34,0.00938657,0.26227293,-0.16638301,-0.13759149,0.00045255,0.00449382
 ,0.00783262,-0.28014591,0.17730279,0.12587990,0.00020828,-0.00007504,-
 0.00002882,0.00006324,-0.00001048,0.00001434,0.00000290,0.00010664,-0.
 00016356,-0.00002314,-0.00000825,0.00014717,-0.00001959,0.00003803,0.0
 0000727,-0.00027957,0.00004125,0.00011337,-0.00007460,0.00004734,-0.00
 007964,0.00004020,0.00002697,0.00000597,-0.00026940,-0.00013548,0.0001
 9875,0.00014330,-0.00001113,-0.00005368,-0.00004024,-0.00003595,-0.000
 03330,0.00008283,0.00015229,0.00002065,0.00022619,-0.00018289,-0.00023
 152,-0.00000220,0.00004189,-0.00007170,-0.00006139,-0.00001437,-0.0000
 4667,-0.00008727,-0.00037637,0.00016118,0.00008543,0.00008661,-0.00008
 069,0.00218111,0.00044136,0.00046458,-0.00104674,0.00020945,0.00103656
 ,-0.00015650,-0.00018755,-0.00019358,0.00011282,-0.00037394,0.00014877
 ,-0.00011632,0.00028414,-0.00013456,-0.00003755,0.00002591,-0.00004943
 ,-0.00147222,-0.00013983,0.00017985,0.00008901,0.00005035,-0.00001774,
 0.00013425,-0.00001428,0.00002345,0.00004545,0.00008116,0.00021961,0.0
 0016143,0.00002845,-0.00014743,-0.00003074,-0.00000412,-0.00011991,0.0
 0038713,0.00002927,-0.00006072,-0.00020834,-0.00004436,0.00022624,0.00
 018794,-0.00011505,-0.00000377,0.00017226,0.00008686,-0.00030250,-0.00
 020865,-0.00002374,0.00024372,0.00008457,-0.00009636,-0.00000723,-0.00
 020088,0.00009072,-0.00025309,0.00032730,0.00036956,0.00074306,0.00035
 650,0.00008226,0.00006124,-0.00042945,-0.00097261,-0.00207501,0.001573
 98,0.00126258,0.00342628,-0.00001033,-0.00024981,0.00100279,0.00205187
 ,-0.01175771,-0.02867432,-0.00736233,0.00211272,0.00000788,-0.30544279
 ,-0.08606611,-0.46390521,0.00382152,-0.00215249,-0.00110764,0.30504073
 ,0.00003145,-0.00001875,-0.00001523,0.00001239,0.00000089,0.00000206,0
 .00000899,0.00004007,-0.00003397,0.00001688,-0.00002519,0.00003830,-0.
 00000224,0.00001493,0.00000290,-0.00023134,-0.00008322,0.00015246,0.00
 013656,0.00009315,-0.00013831,-0.00001918,0.00001666,-0.00001691,-0.00
 002415,-0.00001939,0.00003879,0.00009862,0.00002145,-0.00006404,-0.000
 01353,-0.00002095,-0.00000859,0.00001405,0.00003169,-0.00000180,0.0002
 2150,0.00015464,-0.00012991,0.00000063,0.00001487,-0.00002509,-0.00002
 426,0.00000122,-0.00002019,0.00017353,0.00016058,0.00026192,0.00005007
 ,0.00002118,-0.00000618,-0.00127733,-0.00076272,0.00043450,0.00089766,
 -0.00174460,0.00204221,0.00008703,0.00005396,-0.00022114,0.00003099,-0
 .00014177,0.00006176,-0.00004239,0.00010519,-0.00004930,-0.00000504,0.
 00000309,-0.00001532,-0.00070700,-0.00006113,0.00009545,0.00003508,0.0
 0001814,-0.00001029,0.00005174,-0.00000697,0.00001437,0.00002573,0.000
 03026,0.00009765,0.00006095,0.00001717,-0.00007536,-0.00001810,0.00000
 021,-0.00005760,0.00017110,0.00001088,0.00001085,-0.00007647,-0.000017
 73,0.00008457,0.00008629,-0.00004891,-0.00000874,0.00005536,0.00002809
 ,-0.00011218,-0.00007748,-0.00001114,0.00009444,0.00001208,-0.00002718
 ,-0.00000271,0.00009400,0.00011050,-0.00007414,0.00009905,0.00032411,0
 .00032462,0.00020343,-0.00015833,-0.00001709,-0.00166040,0.00052554,-0
 .00022806,-0.00124978,0.00055945,0.00029726,0.00127347,0.00025421,-0.0
 0085250,-0.00646370,0.00814300,-0.01533971,-0.00237226,0.00217302,0.00
 503058,-0.08853911,-0.05970479,-0.16016848,0.00150302,-0.00094191,-0.0
 0154813,0.09735211,0.05086650,0.00041165,-0.00011073,-0.00004705,0.000
 11811,-0.00002385,0.00003105,-0.00000527,0.00017852,-0.00027792,-0.000
 07800,-0.00002650,0.00022776,-0.00004308,0.00006328,0.00000857,-0.0005
 9712,0.00011412,0.00034110,-0.00067729,0.00029426,-0.00057870,0.000047
 84,-0.00000374,0.00009444,-0.00053585,-0.00030179,0.00038531,0.0002938
 1,-0.00007209,-0.00025754,-0.00007176,-0.00006020,-0.00007392,0.000155
 71,0.00028812,0.00004890,0.00059457,0.00031825,0.00000555,-0.00000774,
 0.00006939,-0.00012195,-0.00009285,-0.00003497,-0.00006333,0.00050524,
 -0.00100212,0.00010813,0.00014879,0.00017824,-0.00011537,0.00536519,0.
 00020761,0.00082760,-0.00070952,0.00090325,0.00162942,-0.00055835,-0.0
 0029934,-0.00018592,0.00020533,-0.00062186,0.00024278,-0.00019583,0.00
 047693,-0.00022659,-0.00007046,0.00004617,-0.00008440,-0.00262700,-0.0
 0040092,0.00054161,0.00013913,0.00008819,-0.00004282,0.00023305,-0.000
 01457,0.00003465,0.00000601,0.00019966,0.00036697,0.00031898,0.0000692
 1,-0.00033823,-0.00005123,-0.00000778,-0.00021032,0.00069080,0.0000408
 2,-0.00009310,-0.00036460,-0.00007446,0.00039557,0.00037587,-0.0002253
 2,0.00001077,0.00019437,0.00014604,-0.00060260,-0.00034424,-0.00003494
 ,0.00041441,0.00021124,-0.00017248,0.00000544,-0.00084292,0.00020363,-
 0.00030629,0.00033171,0.00027574,0.00073371,0.00066948,0.00006874,0.00
 010707,-0.00295841,-0.00048076,-0.00088537,0.00127092,0.00147501,0.002
 84577,0.00188942,0.00099409,-0.00118074,-0.02375844,-0.01845622,-0.040
 13458,-0.01088891,0.00739742,0.00844514,-0.46449919,-0.15746049,-0.819
 75616,0.00641186,-0.00436783,-0.00381640,0.48938901,0.17015628,0.85154
 760\\-0.00000348,-0.00001831,0.00001639,-0.00000759,0.00000047,-0.0000
 0394,-0.00000156,0.00001348,0.00000469,-0.00000304,-0.00000660,-0.0000
 0157,0.00001420,0.00000712,-0.00000816,0.00000255,-0.00001067,0.000014
 48,-0.00000060,0.00000735,-0.00000063,-0.00000713,0.00000083,-0.000014
 19,0.00000782,-0.00001850,-0.00000267,-0.00000424,0.00001415,0.0000017
 0,-0.00000117,0.00000522,-0.00000354,-0.00002928,0.00000831,0.00000143
 ,0.00002915,0.00000767,-0.00000861,-0.00000280,0.00000313,0.00000422,0
 .00001701,-0.00001211,-0.00000324,0.00000945,0.00000924,-0.00003070,-0
 .00000314,-0.00000099,0.00000145,-0.00001994,0.00000658,0.00003399,0.0
 0002001,-0.00001479,-0.00001364,0.00000927,-0.00001171,0.00000301,0.00
 000510,0.00000449,0.00000188,-0.00000003,0.00000035,0.00000037,-0.0000
 0505,0.00000341,-0.00000328,0.00000485,-0.00000254,-0.00000775,0.00000
 124,-0.00000147,-0.00000573,-0.00000237,-0.00000289,0.00000109,-0.0000
 0152,0.00000613,0.00001014,-0.00000781,0.00000254,-0.00000108,0.000002
 45,-0.00000391,-0.00000183,0.00000451,-0.00000099,-0.00000739,0.000001
 98,0.00000005,0.00000251,0.00000101,-0.00000003,0.00000371,-0.00000559
 ,0.00000309,-0.00000321,0.00000340,-0.00000365,0.00000172,0.00000769,0
 .00000537,0.00000633,-0.00001877,-0.00001451,-0.00000449,0.00000325,0.
 00001755,0.00000604,0.00004472,0.00000839,-0.00000758,-0.00008947,-0.0
 0003841,0.00005193,0.00002127,0.00002248,-0.00002699,0.00000464,-0.000
 01137,-0.00002683,-0.00001665,0.00002640,0.00002875,0.00002727,-0.0000
 1055,-0.00000609,-0.00000802,-0.00001253,-0.00001490,-0.00001474,0.000
 00872,0.00000467,0.00001114,0.00000400,0.00000752\\\@
 The archive entry for this job was punched.


 LORD, MAN... WERE YE BUT WHYLES WHERE I AM, 
 THE GENTILES YE WAD NE'ER ENVY 'EM.        
 IT'S TRUE, THEY NEEDNA STARVE OR SWEAT,     
 THRO' WINTER'S CAULD OR SIMMER'S HEAT...  
 THEY'VE NAE SAIR WARK TO CRAZE THEIR BANES, 
 AND FILL AULD AGE WITH GRIPS AN' GRANES...  
                                             
 BUT HUMAN BODIES ARE SIC FOOLS              
 FOR A' THEIR COLLEGES AND SCHOOLS,           
 THAT WHEN NAE REAL ILLS PERPLEX THEM,       
 THEY MAK ENOW THEMSELVES TO VEX THEM,       
 AN' AYE THE LESS THEY HAE TO STURT THEM,    
 IN LIKE PROPORTION LESS WILL HURT THEM....  
                                             
                (ROBERT BURNS 'THE TWA DOGS')
 Job cpu time:       1 days 16 hours 33 minutes  1.9 seconds.
 Elapsed time:       0 days  0 hours 50 minutes 53.1 seconds.
 File lengths (MBytes):  RWF=   5316 Int=      0 D2E=      0 Chk=     71 Scr=      2
 Normal termination of Gaussian 16 at Wed Dec 21 10:22:27 2022.
