 Entering Gaussian System, Link 0=/apps/GAU16/avx2/g16/g16
 Initial command:
 /apps/GAU16/avx2/g16/l1.exe "/localscratch/chesha/scratch/Gau-127204.inp" -scrdir="/localscratch/chesha/scratch/"
 Entering Link 1 = /apps/GAU16/avx2/g16/l1.exe PID=    127206.
  
 Copyright (c) 1988-2019, Gaussian, Inc.  All Rights Reserved.
  
 This is part of the Gaussian(R) 16 program.  It is based on
 the Gaussian(R) 09 system (copyright 2009, Gaussian, Inc.),
 the Gaussian(R) 03 system (copyright 2003, Gaussian, Inc.),
 the Gaussian(R) 98 system (copyright 1998, Gaussian, Inc.),
 the Gaussian(R) 94 system (copyright 1995, Gaussian, Inc.),
 the Gaussian 92(TM) system (copyright 1992, Gaussian, Inc.),
 the Gaussian 90(TM) system (copyright 1990, Gaussian, Inc.),
 the Gaussian 88(TM) system (copyright 1988, Gaussian, Inc.),
 the Gaussian 86(TM) system (copyright 1986, Carnegie Mellon
 University), and the Gaussian 82(TM) system (copyright 1983,
 Carnegie Mellon University). Gaussian is a federally registered
 trademark of Gaussian, Inc.
  
 This software contains proprietary and confidential information,
 including trade secrets, belonging to Gaussian, Inc.
  
 This software is provided under written license and may be
 used, copied, transmitted, or stored only in accord with that
 written license.
  
 The following legend is applicable only to US Government
 contracts under FAR:
  
                    RESTRICTED RIGHTS LEGEND
  
 Use, reproduction and disclosure by the US Government is
 subject to restrictions as set forth in subparagraphs (a)
 and (c) of the Commercial Computer Software - Restricted
 Rights clause in FAR 52.227-19.
  
 Gaussian, Inc.
 340 Quinnipiac St., Bldg. 40, Wallingford CT 06492
  
  
 ---------------------------------------------------------------
 Warning -- This program may not be used in any manner that
 competes with the business of Gaussian, Inc. or will provide
 assistance to any competitor of Gaussian, Inc.  The licensee
 of this program is prohibited from giving any competitor of
 Gaussian, Inc. access to this program.  By using this program,
 the user acknowledges that Gaussian, Inc. is engaged in the
 business of creating and licensing software in the field of
 computational chemistry and represents and warrants to the
 licensee that it is not a competitor of Gaussian, Inc. and that
 it will not use this program in any manner prohibited above.
 ---------------------------------------------------------------
  

 Cite this work as:
 Gaussian 16, Revision C.01,
 M. J. Frisch, G. W. Trucks, H. B. Schlegel, G. E. Scuseria, 
 M. A. Robb, J. R. Cheeseman, G. Scalmani, V. Barone, 
 G. A. Petersson, H. Nakatsuji, X. Li, M. Caricato, A. V. Marenich, 
 J. Bloino, B. G. Janesko, R. Gomperts, B. Mennucci, H. P. Hratchian, 
 J. V. Ortiz, A. F. Izmaylov, J. L. Sonnenberg, D. Williams-Young, 
 F. Ding, F. Lipparini, F. Egidi, J. Goings, B. Peng, A. Petrone, 
 T. Henderson, D. Ranasinghe, V. G. Zakrzewski, J. Gao, N. Rega, 
 G. Zheng, W. Liang, M. Hada, M. Ehara, K. Toyota, R. Fukuda, 
 J. Hasegawa, M. Ishida, T. Nakajima, Y. Honda, O. Kitao, H. Nakai, 
 T. Vreven, K. Throssell, J. A. Montgomery, Jr., J. E. Peralta, 
 F. Ogliaro, M. J. Bearpark, J. J. Heyd, E. N. Brothers, K. N. Kudin, 
 V. N. Staroverov, T. A. Keith, R. Kobayashi, J. Normand, 
 K. Raghavachari, A. P. Rendell, J. C. Burant, S. S. Iyengar, 
 J. Tomasi, M. Cossi, J. M. Millam, M. Klene, C. Adamo, R. Cammi, 
 J. W. Ochterski, R. L. Martin, K. Morokuma, O. Farkas, 
 J. B. Foresman, and D. J. Fox, Gaussian, Inc., Wallingford CT, 2019.
 
 ******************************************
 Gaussian 16:  ES64L-G16RevC.01  3-Jul-2019
                25-Jan-2023 
 ******************************************
 %nprocshared=48
 Will use up to   48 processors via shared memory.
 %mem=100GB
 ---------------------------------------------------------
 # opt freq b3lyp/gen nosymm pseudo=read scf=maxcycles=500
 ---------------------------------------------------------
 1/18=20,19=15,26=3,38=1/1,3;
 2/9=110,12=2,15=1,17=6,18=5,40=1/2;
 3/5=7,11=2,16=1,17=8,25=1,30=1,71=1,74=-5/1,2,3;
 4//1;
 5/5=2,7=500,38=5/2;
 6/7=2,8=2,9=2,10=2,28=1/1;
 7/30=1/1,2,3,16;
 1/18=20,19=15,26=3/3(2);
 2/9=110,15=1/2;
 99//99;
 2/9=110,15=1/2;
 3/5=7,6=1,11=2,16=1,17=8,25=1,30=1,71=1,74=-5,82=7/1,2,3;
 4/5=5,16=3,69=1/1;
 5/5=2,7=500,38=5/2;
 7/30=1/1,2,3,16;
 1/18=20,19=15,26=3/3(-5);
 2/9=110,15=1/2;
 6/7=2,8=2,9=2,10=2,19=2,28=1/1;
 99/9=1/99;
 -------------------
 Title Card Required
 -------------------
 Symbolic Z-matrix:
 Charge =  0 Multiplicity = 1
 42                    0.50974   1.41082   12.24997 
 16                    1.40837   3.57324   12.58009 
 16                   -1.69652   1.83412   12.95559 
 16                   -0.1873    0.9362    10.0317 
 16                    2.43713  -0.10952   11.74891 
 42                   -1.95748   2.50549   10.65922 
 16                   -2.60475   2.04023   8.35868 
 16                   -1.03952   4.54397   10.52551 
 42                    1.0219    3.08317   10.20572 
 16                    0.5001    3.33475   7.77455 
 16                    2.99102   1.93877   9.36111 
 42                    3.22085   2.33865   11.72688 
 42                   -1.74375   4.35826   8.0634 
 16                    4.25091   2.02899   14.03366 
 16                    4.84222   4.04177   11.61771 
 16                   -3.70017   5.63858   8.89325 
 16                   -0.4955    6.51846   8.11081 
 42                   -4.34649   3.37628   9.16469 
 16                   -6.47099   2.53125   8.87904 
 16                   -4.18125   3.16881   11.39901 
 42                    2.86906   0.28333   13.98438 
 16                    3.66725  -1.40102   14.99945 
 16                    0.87062   0.84851   14.76021 
 42                    1.70018   5.52121   7.30035 
 16                    1.06725   5.12568   4.98103 
 16                    1.90167   5.48934   9.94618 
 42                    3.6867    4.20991   9.60334 
 16                    3.69064   4.07754   7.10145 
 16                    5.32025   6.22393   9.35062 
 42                    4.46491   6.274     7.31369 
 16                    5.87612   6.6837    5.7914 
 16                    2.63358   7.83052   7.34845 
 42                    1.75417   7.36525   5.16012 
 16                    3.11659   7.79971   3.59498 
 16                   -0.19807   8.38694   5.0267 
 42                   -1.00952   6.08507   5.94164 
 16                   -1.84965   3.89725   5.69099 
 16                   -3.1146    7.26493   5.78442 
 42                   -3.71695   5.19479   6.52109 
 16                   -4.90244   3.24369   5.39726 
 16                   -6.22278   6.05627   7.04978 
 42                   -6.31393   3.89184   6.94652 
 16                   -8.68776   2.9077    6.45382 
 1                    -9.3789    3.02174   7.60819 
 1                    -9.32847   3.92363   5.83818 
 

 GradGradGradGradGradGradGradGradGradGradGradGradGradGradGradGradGradGrad
 Berny optimization.
 Initialization pass.
                           ----------------------------
                           !    Initial Parameters    !
                           ! (Angstroms and Degrees)  !
 --------------------------                            --------------------------
 ! Name  Definition              Value          Derivative Info.                !
 --------------------------------------------------------------------------------
 ! R1    R(1,2)                  2.3649         estimate D2E/DX2                !
 ! R2    R(1,3)                  2.3547         estimate D2E/DX2                !
 ! R3    R(1,4)                  2.3731         estimate D2E/DX2                !
 ! R4    R(1,5)                  2.5055         estimate D2E/DX2                !
 ! R5    R(1,9)                  2.6904         estimate D2E/DX2                !
 ! R6    R(1,12)                 2.9128         estimate D2E/DX2                !
 ! R7    R(1,23)                 2.5976         estimate D2E/DX2                !
 ! R8    R(2,9)                  2.455          estimate D2E/DX2                !
 ! R9    R(2,12)                 2.3531         estimate D2E/DX2                !
 ! R10   R(3,6)                  2.4067         estimate D2E/DX2                !
 ! R11   R(4,6)                  2.4474         estimate D2E/DX2                !
 ! R12   R(4,9)                  2.4702         estimate D2E/DX2                !
 ! R13   R(5,12)                 2.5706         estimate D2E/DX2                !
 ! R14   R(5,21)                 2.3105         estimate D2E/DX2                !
 ! R15   R(6,7)                  2.4347         estimate D2E/DX2                !
 ! R16   R(6,8)                  2.2396         estimate D2E/DX2                !
 ! R17   R(6,9)                  3.0686         estimate D2E/DX2                !
 ! R18   R(6,18)                 2.9494         estimate D2E/DX2                !
 ! R19   R(6,20)                 2.4357         estimate D2E/DX2                !
 ! R20   R(7,13)                 2.4903         estimate D2E/DX2                !
 ! R21   R(7,18)                 2.3384         estimate D2E/DX2                !
 ! R22   R(8,9)                  2.5467         estimate D2E/DX2                !
 ! R23   R(8,13)                 2.5676         estimate D2E/DX2                !
 ! R24   R(9,10)                 2.4992         estimate D2E/DX2                !
 ! R25   R(9,11)                 2.4291         estimate D2E/DX2                !
 ! R26   R(9,12)                 2.7755         estimate D2E/DX2                !
 ! R27   R(9,26)                 2.5751         estimate D2E/DX2                !
 ! R28   R(9,27)                 2.9553         estimate D2E/DX2                !
 ! R29   R(10,13)                2.4831         estimate D2E/DX2                !
 ! R30   R(10,24)                2.5388         estimate D2E/DX2                !
 ! R31   R(11,12)                2.4103         estimate D2E/DX2                !
 ! R32   R(11,27)                2.3876         estimate D2E/DX2                !
 ! R33   R(12,14)                2.5452         estimate D2E/DX2                !
 ! R34   R(12,15)                2.354          estimate D2E/DX2                !
 ! R35   R(12,21)                3.0732         estimate D2E/DX2                !
 ! R36   R(12,27)                2.8685         estimate D2E/DX2                !
 ! R37   R(13,16)                2.481          estimate D2E/DX2                !
 ! R38   R(13,17)                2.4954         estimate D2E/DX2                !
 ! R39   R(13,18)                2.9919         estimate D2E/DX2                !
 ! R40   R(13,36)                2.8325         estimate D2E/DX2                !
 ! R41   R(13,37)                2.4191         estimate D2E/DX2                !
 ! R42   R(13,39)                2.6405         estimate D2E/DX2                !
 ! R43   R(14,21)                2.2269         estimate D2E/DX2                !
 ! R44   R(15,27)                2.3283         estimate D2E/DX2                !
 ! R45   R(16,18)                2.3684         estimate D2E/DX2                !
 ! R46   R(16,39)                2.4134         estimate D2E/DX2                !
 ! R47   R(17,24)                2.5441         estimate D2E/DX2                !
 ! R48   R(17,36)                2.271          estimate D2E/DX2                !
 ! R49   R(18,19)                2.3042         estimate D2E/DX2                !
 ! R50   R(18,20)                2.25           estimate D2E/DX2                !
 ! R51   R(18,42)                3.0095         estimate D2E/DX2                !
 ! R52   R(19,42)                2.3687         estimate D2E/DX2                !
 ! R53   R(21,22)                2.1224         estimate D2E/DX2                !
 ! R54   R(21,23)                2.217          estimate D2E/DX2                !
 ! R55   R(24,25)                2.4364         estimate D2E/DX2                !
 ! R56   R(24,26)                2.6537         estimate D2E/DX2                !
 ! R57   R(24,28)                2.4669         estimate D2E/DX2                !
 ! R58   R(24,30)                2.8654         estimate D2E/DX2                !
 ! R59   R(24,32)                2.4913         estimate D2E/DX2                !
 ! R60   R(24,33)                2.8256         estimate D2E/DX2                !
 ! R61   R(24,36)                3.0833         estimate D2E/DX2                !
 ! R62   R(25,33)                2.3494         estimate D2E/DX2                !
 ! R63   R(25,36)                2.4812         estimate D2E/DX2                !
 ! R64   R(26,27)                2.2228         estimate D2E/DX2                !
 ! R65   R(27,28)                2.5054         estimate D2E/DX2                !
 ! R66   R(27,29)                2.6055         estimate D2E/DX2                !
 ! R67   R(28,30)                2.3386         estimate D2E/DX2                !
 ! R68   R(29,30)                2.2098         estimate D2E/DX2                !
 ! R69   R(30,31)                2.1158         estimate D2E/DX2                !
 ! R70   R(30,32)                2.4037         estimate D2E/DX2                !
 ! R71   R(32,33)                2.4039         estimate D2E/DX2                !
 ! R72   R(33,34)                2.12           estimate D2E/DX2                !
 ! R73   R(33,35)                2.2075         estimate D2E/DX2                !
 ! R74   R(35,36)                2.6066         estimate D2E/DX2                !
 ! R75   R(36,37)                2.3569         estimate D2E/DX2                !
 ! R76   R(36,38)                2.4183         estimate D2E/DX2                !
 ! R77   R(36,39)                2.9084         estimate D2E/DX2                !
 ! R78   R(37,39)                2.4206         estimate D2E/DX2                !
 ! R79   R(38,39)                2.2784         estimate D2E/DX2                !
 ! R80   R(39,40)                2.5446         estimate D2E/DX2                !
 ! R81   R(39,41)                2.702          estimate D2E/DX2                !
 ! R82   R(39,42)                2.9365         estimate D2E/DX2                !
 ! R83   R(40,42)                2.1938         estimate D2E/DX2                !
 ! R84   R(41,42)                2.1688         estimate D2E/DX2                !
 ! R85   R(42,43)                2.6166         estimate D2E/DX2                !
 ! R86   R(43,44)                1.3503         estimate D2E/DX2                !
 ! R87   R(43,45)                1.3497         estimate D2E/DX2                !
 ! A1    A(2,1,3)               98.6169         estimate D2E/DX2                !
 ! A2    A(2,1,4)              115.1486         estimate D2E/DX2                !
 ! A3    A(2,1,5)              106.8854         estimate D2E/DX2                !
 ! A4    A(2,1,23)              90.5871         estimate D2E/DX2                !
 ! A5    A(3,1,4)               92.3415         estimate D2E/DX2                !
 ! A6    A(3,1,5)              152.8472         estimate D2E/DX2                !
 ! A7    A(3,1,9)              107.1166         estimate D2E/DX2                !
 ! A8    A(3,1,12)             150.2987         estimate D2E/DX2                !
 ! A9    A(3,1,23)              83.0792         estimate D2E/DX2                !
 ! A10   A(4,1,5)               85.277          estimate D2E/DX2                !
 ! A11   A(4,1,12)              99.7425         estimate D2E/DX2                !
 ! A12   A(4,1,23)             154.2636         estimate D2E/DX2                !
 ! A13   A(5,1,9)               94.5193         estimate D2E/DX2                !
 ! A14   A(5,1,23)              87.4225         estimate D2E/DX2                !
 ! A15   A(9,1,23)             147.3931         estimate D2E/DX2                !
 ! A16   A(12,1,23)             96.4989         estimate D2E/DX2                !
 ! A17   A(1,3,6)               82.2887         estimate D2E/DX2                !
 ! A18   A(1,4,6)               81.0568         estimate D2E/DX2                !
 ! A19   A(1,5,21)              81.2075         estimate D2E/DX2                !
 ! A20   A(3,6,4)               89.275          estimate D2E/DX2                !
 ! A21   A(3,6,7)              151.2935         estimate D2E/DX2                !
 ! A22   A(3,6,8)              105.4518         estimate D2E/DX2                !
 ! A23   A(3,6,9)               95.0629         estimate D2E/DX2                !
 ! A24   A(3,6,18)             130.8192         estimate D2E/DX2                !
 ! A25   A(3,6,20)              83.4057         estimate D2E/DX2                !
 ! A26   A(4,6,7)               80.0663         estimate D2E/DX2                !
 ! A27   A(4,6,8)              105.7741         estimate D2E/DX2                !
 ! A28   A(4,6,18)             130.1829         estimate D2E/DX2                !
 ! A29   A(4,6,20)             155.9029         estimate D2E/DX2                !
 ! A30   A(7,6,8)              103.0901         estimate D2E/DX2                !
 ! A31   A(7,6,9)               98.8851         estimate D2E/DX2                !
 ! A32   A(7,6,20)              95.5269         estimate D2E/DX2                !
 ! A33   A(8,6,18)              91.8922         estimate D2E/DX2                !
 ! A34   A(8,6,20)              98.3067         estimate D2E/DX2                !
 ! A35   A(9,6,18)             130.9938         estimate D2E/DX2                !
 ! A36   A(9,6,20)             151.653          estimate D2E/DX2                !
 ! A37   A(6,7,13)              80.9238         estimate D2E/DX2                !
 ! A38   A(6,8,13)              83.0501         estimate D2E/DX2                !
 ! A39   A(9,8,13)              93.4465         estimate D2E/DX2                !
 ! A40   A(1,9,6)               65.5339         estimate D2E/DX2                !
 ! A41   A(1,9,8)               96.1453         estimate D2E/DX2                !
 ! A42   A(1,9,10)             139.6386         estimate D2E/DX2                !
 ! A43   A(1,9,11)              97.2193         estimate D2E/DX2                !
 ! A44   A(1,9,26)             136.258          estimate D2E/DX2                !
 ! A45   A(1,9,27)             124.3008         estimate D2E/DX2                !
 ! A46   A(2,9,4)              108.5836         estimate D2E/DX2                !
 ! A47   A(2,9,6)               92.7221         estimate D2E/DX2                !
 ! A48   A(2,9,8)               83.7698         estimate D2E/DX2                !
 ! A49   A(2,9,10)             162.4743         estimate D2E/DX2                !
 ! A50   A(2,9,11)             107.6209         estimate D2E/DX2                !
 ! A51   A(2,9,26)              81.7883         estimate D2E/DX2                !
 ! A52   A(2,9,27)              88.8013         estimate D2E/DX2                !
 ! A53   A(4,9,8)               96.3819         estimate D2E/DX2                !
 ! A54   A(4,9,10)              85.2251         estimate D2E/DX2                !
 ! A55   A(4,9,11)              87.871          estimate D2E/DX2                !
 ! A56   A(4,9,12)             101.1446         estimate D2E/DX2                !
 ! A57   A(4,9,27)             139.3248         estimate D2E/DX2                !
 ! A58   A(6,9,10)              87.7075         estimate D2E/DX2                !
 ! A59   A(6,9,11)             138.571          estimate D2E/DX2                !
 ! A60   A(6,9,12)             129.6233         estimate D2E/DX2                !
 ! A61   A(6,9,26)             121.5017         estimate D2E/DX2                !
 ! A62   A(8,9,10)              83.9966         estimate D2E/DX2                !
 ! A63   A(8,9,12)             136.5806         estimate D2E/DX2                !
 ! A64   A(8,9,26)              75.7132         estimate D2E/DX2                !
 ! A65   A(8,9,27)             122.4657         estimate D2E/DX2                !
 ! A66   A(10,9,11)             83.0175         estimate D2E/DX2                !
 ! A67   A(10,9,12)            136.5143         estimate D2E/DX2                !
 ! A68   A(10,9,26)             83.0634         estimate D2E/DX2                !
 ! A69   A(10,9,27)             87.226          estimate D2E/DX2                !
 ! A70   A(11,9,26)             97.3669         estimate D2E/DX2                !
 ! A71   A(12,9,26)             92.0181         estimate D2E/DX2                !
 ! A72   A(9,10,13)             96.7189         estimate D2E/DX2                !
 ! A73   A(9,10,24)             99.7698         estimate D2E/DX2                !
 ! A74   A(13,10,24)            95.3872         estimate D2E/DX2                !
 ! A75   A(1,12,11)             91.9869         estimate D2E/DX2                !
 ! A76   A(1,12,14)            100.0884         estimate D2E/DX2                !
 ! A77   A(1,12,15)            151.6247         estimate D2E/DX2                !
 ! A78   A(1,12,21)             63.1605         estimate D2E/DX2                !
 ! A79   A(1,12,27)            119.4655         estimate D2E/DX2                !
 ! A80   A(2,12,5)             105.1728         estimate D2E/DX2                !
 ! A81   A(2,12,11)            111.6839         estimate D2E/DX2                !
 ! A82   A(2,12,14)             92.69           estimate D2E/DX2                !
 ! A83   A(2,12,15)             99.6565         estimate D2E/DX2                !
 ! A84   A(2,12,21)             89.7921         estimate D2E/DX2                !
 ! A85   A(2,12,27)             92.9376         estimate D2E/DX2                !
 ! A86   A(5,12,9)              91.0673         estimate D2E/DX2                !
 ! A87   A(5,12,11)             79.7086         estimate D2E/DX2                !
 ! A88   A(5,12,14)             89.9857         estimate D2E/DX2                !
 ! A89   A(5,12,15)            154.0805         estimate D2E/DX2                !
 ! A90   A(5,12,27)            132.6202         estimate D2E/DX2                !
 ! A91   A(9,12,14)            148.2098         estimate D2E/DX2                !
 ! A92   A(9,12,15)            109.0378         estimate D2E/DX2                !
 ! A93   A(9,12,21)            119.4264         estimate D2E/DX2                !
 ! A94   A(11,12,14)           155.2271         estimate D2E/DX2                !
 ! A95   A(11,12,15)            98.0587         estimate D2E/DX2                !
 ! A96   A(11,12,21)           126.8083         estimate D2E/DX2                !
 ! A97   A(14,12,15)            81.4485         estimate D2E/DX2                !
 ! A98   A(14,12,27)           133.2036         estimate D2E/DX2                !
 ! A99   A(15,12,21)           126.6396         estimate D2E/DX2                !
 ! A100  A(7,13,8)              92.7771         estimate D2E/DX2                !
 ! A101  A(7,13,10)             86.7062         estimate D2E/DX2                !
 ! A102  A(7,13,16)             99.6744         estimate D2E/DX2                !
 ! A103  A(7,13,36)            138.2373         estimate D2E/DX2                !
 ! A104  A(7,13,37)             85.6276         estimate D2E/DX2                !
 ! A105  A(7,13,39)             96.0723         estimate D2E/DX2                !
 ! A106  A(8,13,10)             83.8869         estimate D2E/DX2                !
 ! A107  A(8,13,16)             81.8489         estimate D2E/DX2                !
 ! A108  A(8,13,17)             77.4065         estimate D2E/DX2                !
 ! A109  A(8,13,18)             84.8            estimate D2E/DX2                !
 ! A110  A(8,13,36)            127.0942         estimate D2E/DX2                !
 ! A111  A(8,13,39)            137.9165         estimate D2E/DX2                !
 ! A112  A(10,13,16)           164.62           estimate D2E/DX2                !
 ! A113  A(10,13,17)            84.6644         estimate D2E/DX2                !
 ! A114  A(10,13,18)           133.9187         estimate D2E/DX2                !
 ! A115  A(10,13,36)            85.9809         estimate D2E/DX2                !
 ! A116  A(10,13,37)            81.195          estimate D2E/DX2                !
 ! A117  A(10,13,39)           137.5552         estimate D2E/DX2                !
 ! A118  A(16,13,17)            86.6387         estimate D2E/DX2                !
 ! A119  A(16,13,36)            98.0687         estimate D2E/DX2                !
 ! A120  A(16,13,37)           113.0696         estimate D2E/DX2                !
 ! A121  A(17,13,18)           135.4226         estimate D2E/DX2                !
 ! A122  A(17,13,37)           101.8591         estimate D2E/DX2                !
 ! A123  A(17,13,39)            96.3531         estimate D2E/DX2                !
 ! A124  A(18,13,36)           134.5343         estimate D2E/DX2                !
 ! A125  A(18,13,37)           105.0912         estimate D2E/DX2                !
 ! A126  A(18,13,39)            70.6641         estimate D2E/DX2                !
 ! A127  A(18,16,39)            86.2792         estimate D2E/DX2                !
 ! A128  A(13,17,24)            94.9527         estimate D2E/DX2                !
 ! A129  A(6,18,13)             65.0889         estimate D2E/DX2                !
 ! A130  A(6,18,16)             96.837          estimate D2E/DX2                !
 ! A131  A(6,18,19)            134.5372         estimate D2E/DX2                !
 ! A132  A(6,18,42)            162.475          estimate D2E/DX2                !
 ! A133  A(7,18,16)            107.6367         estimate D2E/DX2                !
 ! A134  A(7,18,19)            115.7528         estimate D2E/DX2                !
 ! A135  A(7,18,20)            103.5856         estimate D2E/DX2                !
 ! A136  A(7,18,42)            109.3146         estimate D2E/DX2                !
 ! A137  A(13,18,19)           151.2631         estimate D2E/DX2                !
 ! A138  A(13,18,20)           109.3844         estimate D2E/DX2                !
 ! A139  A(13,18,42)           103.9561         estimate D2E/DX2                !
 ! A140  A(16,18,19)           125.9947         estimate D2E/DX2                !
 ! A141  A(16,18,20)           100.477          estimate D2E/DX2                !
 ! A142  A(16,18,42)            86.0027         estimate D2E/DX2                !
 ! A143  A(19,18,20)            99.0331         estimate D2E/DX2                !
 ! A144  A(20,18,42)           142.7245         estimate D2E/DX2                !
 ! A145  A(5,21,14)            105.7058         estimate D2E/DX2                !
 ! A146  A(5,21,22)            113.4607         estimate D2E/DX2                !
 ! A147  A(5,21,23)            102.3229         estimate D2E/DX2                !
 ! A148  A(12,21,22)           147.039          estimate D2E/DX2                !
 ! A149  A(12,21,23)           100.9383         estimate D2E/DX2                !
 ! A150  A(14,21,22)           112.2189         estimate D2E/DX2                !
 ! A151  A(14,21,23)           110.5949         estimate D2E/DX2                !
 ! A152  A(22,21,23)           111.9597         estimate D2E/DX2                !
 ! A153  A(1,23,21)             80.9233         estimate D2E/DX2                !
 ! A154  A(10,24,17)            82.5377         estimate D2E/DX2                !
 ! A155  A(10,24,25)            85.1353         estimate D2E/DX2                !
 ! A156  A(10,24,26)            80.7537         estimate D2E/DX2                !
 ! A157  A(10,24,28)            83.8267         estimate D2E/DX2                !
 ! A158  A(10,24,30)           132.958          estimate D2E/DX2                !
 ! A159  A(10,24,33)           135.4425         estimate D2E/DX2                !
 ! A160  A(10,24,36)            79.8856         estimate D2E/DX2                !
 ! A161  A(17,24,25)            98.2033         estimate D2E/DX2                !
 ! A162  A(17,24,26)            75.6772         estimate D2E/DX2                !
 ! A163  A(17,24,28)           162.0724         estimate D2E/DX2                !
 ! A164  A(17,24,30)           136.7411         estimate D2E/DX2                !
 ! A165  A(17,24,32)            87.355          estimate D2E/DX2                !
 ! A166  A(17,24,33)            90.1127         estimate D2E/DX2                !
 ! A167  A(25,24,28)            92.169          estimate D2E/DX2                !
 ! A168  A(25,24,30)           107.3211         estimate D2E/DX2                !
 ! A169  A(25,24,32)           105.4378         estimate D2E/DX2                !
 ! A170  A(26,24,28)            90.6932         estimate D2E/DX2                !
 ! A171  A(26,24,30)            85.7134         estimate D2E/DX2                !
 ! A172  A(26,24,32)            87.9045         estimate D2E/DX2                !
 ! A173  A(26,24,33)           139.6047         estimate D2E/DX2                !
 ! A174  A(26,24,36)           120.5503         estimate D2E/DX2                !
 ! A175  A(28,24,32)           103.988          estimate D2E/DX2                !
 ! A176  A(28,24,33)           107.7842         estimate D2E/DX2                !
 ! A177  A(28,24,36)           141.3151         estimate D2E/DX2                !
 ! A178  A(30,24,33)            79.2594         estimate D2E/DX2                !
 ! A179  A(30,24,36)           143.3183         estimate D2E/DX2                !
 ! A180  A(32,24,36)            99.6868         estimate D2E/DX2                !
 ! A181  A(33,24,36)            64.1291         estimate D2E/DX2                !
 ! A182  A(33,25,36)            81.177          estimate D2E/DX2                !
 ! A183  A(9,26,24)             94.9204         estimate D2E/DX2                !
 ! A184  A(24,26,27)            85.0725         estimate D2E/DX2                !
 ! A185  A(9,27,15)            104.1007         estimate D2E/DX2                !
 ! A186  A(9,27,28)            100.6509         estimate D2E/DX2                !
 ! A187  A(9,27,29)            151.6212         estimate D2E/DX2                !
 ! A188  A(11,27,15)            99.4208         estimate D2E/DX2                !
 ! A189  A(11,27,26)           109.219          estimate D2E/DX2                !
 ! A190  A(11,27,28)            81.3088         estimate D2E/DX2                !
 ! A191  A(11,27,29)           155.2461         estimate D2E/DX2                !
 ! A192  A(12,27,26)            97.521          estimate D2E/DX2                !
 ! A193  A(12,27,28)           134.8346         estimate D2E/DX2                !
 ! A194  A(12,27,29)           132.6792         estimate D2E/DX2                !
 ! A195  A(15,27,26)           107.8586         estimate D2E/DX2                !
 ! A196  A(15,27,28)           149.2433         estimate D2E/DX2                !
 ! A197  A(15,27,29)            80.1299         estimate D2E/DX2                !
 ! A198  A(26,27,28)           100.7018         estimate D2E/DX2                !
 ! A199  A(26,27,29)            94.216          estimate D2E/DX2                !
 ! A200  A(28,27,29)            86.7319         estimate D2E/DX2                !
 ! A201  A(24,28,27)            83.5289         estimate D2E/DX2                !
 ! A202  A(27,28,30)            81.9678         estimate D2E/DX2                !
 ! A203  A(27,29,30)            82.1977         estimate D2E/DX2                !
 ! A204  A(24,30,29)           111.827          estimate D2E/DX2                !
 ! A205  A(24,30,31)           133.7144         estimate D2E/DX2                !
 ! A206  A(28,30,29)           100.9835         estimate D2E/DX2                !
 ! A207  A(28,30,31)           109.7185         estimate D2E/DX2                !
 ! A208  A(28,30,32)           110.9325         estimate D2E/DX2                !
 ! A209  A(29,30,31)           114.1681         estimate D2E/DX2                !
 ! A210  A(29,30,32)           107.2319         estimate D2E/DX2                !
 ! A211  A(31,30,32)           113.152          estimate D2E/DX2                !
 ! A212  A(30,32,33)            98.0605         estimate D2E/DX2                !
 ! A213  A(24,33,34)           134.8463         estimate D2E/DX2                !
 ! A214  A(24,33,35)           109.3256         estimate D2E/DX2                !
 ! A215  A(25,33,32)           111.1527         estimate D2E/DX2                !
 ! A216  A(25,33,34)           109.0849         estimate D2E/DX2                !
 ! A217  A(25,33,35)           100.2543         estimate D2E/DX2                !
 ! A218  A(32,33,34)           113.4095         estimate D2E/DX2                !
 ! A219  A(32,33,35)           106.7964         estimate D2E/DX2                !
 ! A220  A(34,33,35)           115.3958         estimate D2E/DX2                !
 ! A221  A(33,35,36)            81.1045         estimate D2E/DX2                !
 ! A222  A(13,36,24)            77.656          estimate D2E/DX2                !
 ! A223  A(13,36,25)           105.7388         estimate D2E/DX2                !
 ! A224  A(13,36,35)           151.8873         estimate D2E/DX2                !
 ! A225  A(13,36,38)            96.9205         estimate D2E/DX2                !
 ! A226  A(17,36,25)           104.7228         estimate D2E/DX2                !
 ! A227  A(17,36,35)            95.5253         estimate D2E/DX2                !
 ! A228  A(17,36,37)           111.0632         estimate D2E/DX2                !
 ! A229  A(17,36,38)            99.5561         estimate D2E/DX2                !
 ! A230  A(17,36,39)            94.5205         estimate D2E/DX2                !
 ! A231  A(24,36,35)            92.4411         estimate D2E/DX2                !
 ! A232  A(24,36,37)           100.9744         estimate D2E/DX2                !
 ! A233  A(24,36,38)           151.9927         estimate D2E/DX2                !
 ! A234  A(24,36,39)           132.4034         estimate D2E/DX2                !
 ! A235  A(25,36,35)            86.8474         estimate D2E/DX2                !
 ! A236  A(25,36,37)            84.1605         estimate D2E/DX2                !
 ! A237  A(25,36,38)           153.137          estimate D2E/DX2                !
 ! A238  A(25,36,39)           137.558          estimate D2E/DX2                !
 ! A239  A(35,36,37)           153.3006         estimate D2E/DX2                !
 ! A240  A(35,36,38)            79.4736         estimate D2E/DX2                !
 ! A241  A(35,36,39)           129.0549         estimate D2E/DX2                !
 ! A242  A(37,36,38)            97.7981         estimate D2E/DX2                !
 ! A243  A(13,39,38)           106.2093         estimate D2E/DX2                !
 ! A244  A(13,39,40)           111.2967         estimate D2E/DX2                !
 ! A245  A(13,39,41)           132.8247         estimate D2E/DX2                !
 ! A246  A(13,39,42)           115.8297         estimate D2E/DX2                !
 ! A247  A(16,39,36)            97.6471         estimate D2E/DX2                !
 ! A248  A(16,39,37)           115.4849         estimate D2E/DX2                !
 ! A249  A(16,39,38)            98.5626         estimate D2E/DX2                !
 ! A250  A(16,39,40)           125.3337         estimate D2E/DX2                !
 ! A251  A(16,39,41)            75.8475         estimate D2E/DX2                !
 ! A252  A(16,39,42)            86.8667         estimate D2E/DX2                !
 ! A253  A(36,39,40)           125.4794         estimate D2E/DX2                !
 ! A254  A(36,39,41)           143.5827         estimate D2E/DX2                !
 ! A255  A(37,39,38)            99.9168         estimate D2E/DX2                !
 ! A256  A(37,39,40)            78.2832         estimate D2E/DX2                !
 ! A257  A(37,39,41)           162.4401         estimate D2E/DX2                !
 ! A258  A(37,39,42)           119.6076         estimate D2E/DX2                !
 ! A259  A(38,39,40)           132.6132         estimate D2E/DX2                !
 ! A260  A(38,39,41)            91.0751         estimate D2E/DX2                !
 ! A261  A(38,39,42)           133.1424         estimate D2E/DX2                !
 ! A262  A(40,39,41)            84.1931         estimate D2E/DX2                !
 ! A263  A(18,42,39)            66.7112         estimate D2E/DX2                !
 ! A264  A(18,42,40)            92.8245         estimate D2E/DX2                !
 ! A265  A(18,42,41)            96.2231         estimate D2E/DX2                !
 ! A266  A(18,42,43)           131.8712         estimate D2E/DX2                !
 ! A267  A(19,42,39)           115.5765         estimate D2E/DX2                !
 ! A268  A(19,42,40)           116.6878         estimate D2E/DX2                !
 ! A269  A(19,42,41)           122.4929         estimate D2E/DX2                !
 ! A270  A(19,42,43)            82.9592         estimate D2E/DX2                !
 ! A271  A(39,42,43)           160.3818         estimate D2E/DX2                !
 ! A272  A(40,42,41)           107.5441         estimate D2E/DX2                !
 ! A273  A(40,42,43)           109.8537         estimate D2E/DX2                !
 ! A274  A(41,42,43)           114.9897         estimate D2E/DX2                !
 ! A275  A(42,43,44)           105.7606         estimate D2E/DX2                !
 ! A276  A(42,43,45)           103.5001         estimate D2E/DX2                !
 ! A277  A(44,43,45)            94.7841         estimate D2E/DX2                !
 ! A278  L(4,9,26,2,-1)        190.372          estimate D2E/DX2                !
 ! A279  L(6,9,27,1,-1)        189.8347         estimate D2E/DX2                !
 ! A280  L(8,9,11,1,-1)        193.3646         estimate D2E/DX2                !
 ! A281  L(21,12,27,2,-1)      182.7297         estimate D2E/DX2                !
 ! A282  L(7,13,17,8,-1)       170.1835         estimate D2E/DX2                !
 ! A283  L(8,13,37,7,-1)       178.4046         estimate D2E/DX2                !
 ! A284  L(10,24,32,17,-1)     169.8927         estimate D2E/DX2                !
 ! A285  L(25,24,26,10,-1)     165.889          estimate D2E/DX2                !
 ! A286  L(36,39,42,16,-1)     184.5138         estimate D2E/DX2                !
 ! A287  L(4,9,26,2,-2)        188.9341         estimate D2E/DX2                !
 ! A288  L(6,9,27,1,-2)        188.3111         estimate D2E/DX2                !
 ! A289  L(8,9,11,1,-2)        175.6489         estimate D2E/DX2                !
 ! A290  L(21,12,27,2,-2)      178.9565         estimate D2E/DX2                !
 ! A291  L(7,13,17,8,-2)       172.2621         estimate D2E/DX2                !
 ! A292  L(8,13,37,7,-2)       194.8819         estimate D2E/DX2                !
 ! A293  L(10,24,32,17,-2)     170.8214         estimate D2E/DX2                !
 ! A294  L(25,24,26,10,-2)     184.433          estimate D2E/DX2                !
 ! A295  L(36,39,42,16,-2)     187.7011         estimate D2E/DX2                !
 ! D1    D(2,1,3,6)             86.4552         estimate D2E/DX2                !
 ! D2    D(4,1,3,6)            -29.4176         estimate D2E/DX2                !
 ! D3    D(5,1,3,6)           -113.6295         estimate D2E/DX2                !
 ! D4    D(9,1,3,6)             27.7315         estimate D2E/DX2                !
 ! D5    D(12,1,3,6)            85.0072         estimate D2E/DX2                !
 ! D6    D(23,1,3,6)           175.9994         estimate D2E/DX2                !
 ! D7    D(2,1,4,6)            -71.6718         estimate D2E/DX2                !
 ! D8    D(3,1,4,6)             28.9807         estimate D2E/DX2                !
 ! D9    D(5,1,4,6)           -178.1219         estimate D2E/DX2                !
 ! D10   D(12,1,4,6)          -123.7781         estimate D2E/DX2                !
 ! D11   D(23,1,4,6)           107.8583         estimate D2E/DX2                !
 ! D12   D(2,1,5,21)            70.4027         estimate D2E/DX2                !
 ! D13   D(3,1,5,21)           -88.8143         estimate D2E/DX2                !
 ! D14   D(4,1,5,21)          -174.7281         estimate D2E/DX2                !
 ! D15   D(9,1,5,21)           127.9565         estimate D2E/DX2                !
 ! D16   D(23,1,5,21)          -19.4286         estimate D2E/DX2                !
 ! D17   D(3,1,9,6)            -23.4118         estimate D2E/DX2                !
 ! D18   D(3,1,9,8)             11.6411         estimate D2E/DX2                !
 ! D19   D(3,1,9,10)           -76.3102         estimate D2E/DX2                !
 ! D20   D(3,1,9,11)          -164.0077         estimate D2E/DX2                !
 ! D21   D(3,1,9,26)            87.3721         estimate D2E/DX2                !
 ! D22   D(3,1,9,27)           148.2771         estimate D2E/DX2                !
 ! D23   D(5,1,9,6)            139.9786         estimate D2E/DX2                !
 ! D24   D(5,1,9,8)            175.0316         estimate D2E/DX2                !
 ! D25   D(5,1,9,10)            87.0802         estimate D2E/DX2                !
 ! D26   D(5,1,9,11)            -0.6173         estimate D2E/DX2                !
 ! D27   D(5,1,9,26)          -109.2375         estimate D2E/DX2                !
 ! D28   D(5,1,9,27)           -48.3325         estimate D2E/DX2                !
 ! D29   D(23,1,9,6)          -127.7378         estimate D2E/DX2                !
 ! D30   D(23,1,9,8)           -92.6848         estimate D2E/DX2                !
 ! D31   D(23,1,9,10)          179.3638         estimate D2E/DX2                !
 ! D32   D(23,1,9,11)           91.6663         estimate D2E/DX2                !
 ! D33   D(23,1,9,26)          -16.9538         estimate D2E/DX2                !
 ! D34   D(23,1,9,27)           43.9511         estimate D2E/DX2                !
 ! D35   D(3,1,12,11)         -114.3914         estimate D2E/DX2                !
 ! D36   D(3,1,12,14)           87.335          estimate D2E/DX2                !
 ! D37   D(3,1,12,15)           -3.3291         estimate D2E/DX2                !
 ! D38   D(3,1,12,21)          114.7402         estimate D2E/DX2                !
 ! D39   D(3,1,12,27)          -66.7138         estimate D2E/DX2                !
 ! D40   D(4,1,12,11)           -1.7686         estimate D2E/DX2                !
 ! D41   D(4,1,12,14)         -160.0421         estimate D2E/DX2                !
 ! D42   D(4,1,12,15)          109.2937         estimate D2E/DX2                !
 ! D43   D(4,1,12,21)         -132.637          estimate D2E/DX2                !
 ! D44   D(4,1,12,27)           45.909          estimate D2E/DX2                !
 ! D45   D(23,1,12,11)         158.1913         estimate D2E/DX2                !
 ! D46   D(23,1,12,14)          -0.0823         estimate D2E/DX2                !
 ! D47   D(23,1,12,15)         -90.7464         estimate D2E/DX2                !
 ! D48   D(23,1,12,21)          27.3229         estimate D2E/DX2                !
 ! D49   D(23,1,12,27)        -154.1312         estimate D2E/DX2                !
 ! D50   D(2,1,23,21)          -86.5772         estimate D2E/DX2                !
 ! D51   D(3,1,23,21)          174.8138         estimate D2E/DX2                !
 ! D52   D(4,1,23,21)           93.8482         estimate D2E/DX2                !
 ! D53   D(5,1,23,21)           20.2992         estimate D2E/DX2                !
 ! D54   D(9,1,23,21)          -74.0594         estimate D2E/DX2                !
 ! D55   D(12,1,23,21)         -35.0942         estimate D2E/DX2                !
 ! D56   D(1,2,9,12)           -82.6553         estimate D2E/DX2                !
 ! D57   D(1,3,6,4)             28.418          estimate D2E/DX2                !
 ! D58   D(1,3,6,7)             95.9426         estimate D2E/DX2                !
 ! D59   D(1,3,6,8)            -77.7565         estimate D2E/DX2                !
 ! D60   D(1,3,6,9)            -23.0437         estimate D2E/DX2                !
 ! D61   D(1,3,6,18)           175.7426         estimate D2E/DX2                !
 ! D62   D(1,3,6,20)          -174.587          estimate D2E/DX2                !
 ! D63   D(1,4,6,3)            -28.2742         estimate D2E/DX2                !
 ! D64   D(1,4,6,7)            178.5076         estimate D2E/DX2                !
 ! D65   D(1,4,6,8)             77.5866         estimate D2E/DX2                !
 ! D66   D(1,4,6,18)          -175.9451         estimate D2E/DX2                !
 ! D67   D(1,4,6,20)          -100.2401         estimate D2E/DX2                !
 ! D68   D(1,5,21,14)          -92.3275         estimate D2E/DX2                !
 ! D69   D(1,5,21,22)          144.2884         estimate D2E/DX2                !
 ! D70   D(1,5,21,23)           23.4862         estimate D2E/DX2                !
 ! D71   D(3,6,7,13)          -177.0177         estimate D2E/DX2                !
 ! D72   D(4,6,7,13)          -107.294          estimate D2E/DX2                !
 ! D73   D(8,6,7,13)            -3.2526         estimate D2E/DX2                !
 ! D74   D(9,6,7,13)           -58.8908         estimate D2E/DX2                !
 ! D75   D(20,6,7,13)           96.6235         estimate D2E/DX2                !
 ! D76   D(3,6,8,13)          -179.9643         estimate D2E/DX2                !
 ! D77   D(4,6,8,13)            86.3409         estimate D2E/DX2                !
 ! D78   D(7,6,8,13)             3.1382         estimate D2E/DX2                !
 ! D79   D(18,6,8,13)          -46.5167         estimate D2E/DX2                !
 ! D80   D(20,6,8,13)          -94.5557         estimate D2E/DX2                !
 ! D81   D(3,6,9,1)             21.9003         estimate D2E/DX2                !
 ! D82   D(3,6,9,2)            -26.7633         estimate D2E/DX2                !
 ! D83   D(3,6,9,10)           170.7742         estimate D2E/DX2                !
 ! D84   D(3,6,9,11)            94.026          estimate D2E/DX2                !
 ! D85   D(3,6,9,12)            15.3288         estimate D2E/DX2                !
 ! D86   D(3,6,9,26)          -108.7982         estimate D2E/DX2                !
 ! D87   D(7,6,9,1)           -132.9327         estimate D2E/DX2                !
 ! D88   D(7,6,9,2)            178.4038         estimate D2E/DX2                !
 ! D89   D(7,6,9,10)            15.9412         estimate D2E/DX2                !
 ! D90   D(7,6,9,11)           -60.807          estimate D2E/DX2                !
 ! D91   D(7,6,9,12)          -139.5042         estimate D2E/DX2                !
 ! D92   D(7,6,9,26)            96.3688         estimate D2E/DX2                !
 ! D93   D(18,6,9,1)          -176.9376         estimate D2E/DX2                !
 ! D94   D(18,6,9,2)           134.3989         estimate D2E/DX2                !
 ! D95   D(18,6,9,10)          -28.0637         estimate D2E/DX2                !
 ! D96   D(18,6,9,11)         -104.8119         estimate D2E/DX2                !
 ! D97   D(18,6,9,12)          176.4909         estimate D2E/DX2                !
 ! D98   D(18,6,9,26)           52.3639         estimate D2E/DX2                !
 ! D99   D(20,6,9,1)           107.3926         estimate D2E/DX2                !
 ! D100  D(20,6,9,2)            58.7291         estimate D2E/DX2                !
 ! D101  D(20,6,9,10)         -103.7335         estimate D2E/DX2                !
 ! D102  D(20,6,9,11)          179.5183         estimate D2E/DX2                !
 ! D103  D(20,6,9,12)          100.8211         estimate D2E/DX2                !
 ! D104  D(20,6,9,26)          -23.3059         estimate D2E/DX2                !
 ! D105  D(3,6,18,13)          155.3435         estimate D2E/DX2                !
 ! D106  D(3,6,18,16)          110.9293         estimate D2E/DX2                !
 ! D107  D(3,6,18,19)          -50.5837         estimate D2E/DX2                !
 ! D108  D(3,6,18,42)         -150.6447         estimate D2E/DX2                !
 ! D109  D(4,6,18,13)          -69.6156         estimate D2E/DX2                !
 ! D110  D(4,6,18,16)         -114.0298         estimate D2E/DX2                !
 ! D111  D(4,6,18,19)           84.4572         estimate D2E/DX2                !
 ! D112  D(4,6,18,42)          -15.6038         estimate D2E/DX2                !
 ! D113  D(8,6,18,13)           42.9611         estimate D2E/DX2                !
 ! D114  D(8,6,18,16)           -1.4531         estimate D2E/DX2                !
 ! D115  D(8,6,18,19)         -162.9661         estimate D2E/DX2                !
 ! D116  D(8,6,18,42)           96.9729         estimate D2E/DX2                !
 ! D117  D(9,6,18,13)            0.4943         estimate D2E/DX2                !
 ! D118  D(9,6,18,16)          -43.9199         estimate D2E/DX2                !
 ! D119  D(9,6,18,19)          154.5671         estimate D2E/DX2                !
 ! D120  D(9,6,18,42)           54.5061         estimate D2E/DX2                !
 ! D121  D(6,7,13,8)             2.7663         estimate D2E/DX2                !
 ! D122  D(6,7,13,10)           86.4749         estimate D2E/DX2                !
 ! D123  D(6,7,13,16)          -79.4329         estimate D2E/DX2                !
 ! D124  D(6,7,13,36)          166.6954         estimate D2E/DX2                !
 ! D125  D(6,7,13,37)          167.8843         estimate D2E/DX2                !
 ! D126  D(6,7,13,39)         -136.0319         estimate D2E/DX2                !
 ! D127  D(13,8,9,1)          -129.0336         estimate D2E/DX2                !
 ! D128  D(13,8,9,2)           177.7939         estimate D2E/DX2                !
 ! D129  D(13,8,9,4)           -74.1246         estimate D2E/DX2                !
 ! D130  D(13,8,9,10)           10.3674         estimate D2E/DX2                !
 ! D131  D(13,8,9,12)          172.2248         estimate D2E/DX2                !
 ! D132  D(13,8,9,26)           94.7128         estimate D2E/DX2                !
 ! D133  D(13,8,9,27)           93.2105         estimate D2E/DX2                !
 ! D134  D(6,8,13,7)            -2.9918         estimate D2E/DX2                !
 ! D135  D(6,8,13,10)          -89.377          estimate D2E/DX2                !
 ! D136  D(6,8,13,16)           96.3902         estimate D2E/DX2                !
 ! D137  D(6,8,13,17)         -175.2539         estimate D2E/DX2                !
 ! D138  D(6,8,13,18)           45.8769         estimate D2E/DX2                !
 ! D139  D(6,8,13,36)         -169.6267         estimate D2E/DX2                !
 ! D140  D(6,8,13,39)           99.2322         estimate D2E/DX2                !
 ! D141  D(9,8,13,7)            75.9477         estimate D2E/DX2                !
 ! D142  D(9,8,13,10)          -10.4375         estimate D2E/DX2                !
 ! D143  D(9,8,13,16)          175.3297         estimate D2E/DX2                !
 ! D144  D(9,8,13,17)          -96.3144         estimate D2E/DX2                !
 ! D145  D(9,8,13,18)          124.8164         estimate D2E/DX2                !
 ! D146  D(9,8,13,36)          -90.6872         estimate D2E/DX2                !
 ! D147  D(9,8,13,39)          178.1717         estimate D2E/DX2                !
 ! D148  D(1,9,10,13)           81.6551         estimate D2E/DX2                !
 ! D149  D(1,9,10,24)          178.3287         estimate D2E/DX2                !
 ! D150  D(2,9,10,13)          -56.7216         estimate D2E/DX2                !
 ! D151  D(2,9,10,24)           39.952          estimate D2E/DX2                !
 ! D152  D(4,9,10,13)           86.1671         estimate D2E/DX2                !
 ! D153  D(4,9,10,24)         -177.1594         estimate D2E/DX2                !
 ! D154  D(6,9,10,13)           35.0587         estimate D2E/DX2                !
 ! D155  D(6,9,10,24)          131.7322         estimate D2E/DX2                !
 ! D156  D(8,9,10,13)          -10.7794         estimate D2E/DX2                !
 ! D157  D(8,9,10,24)           85.8942         estimate D2E/DX2                !
 ! D158  D(11,9,10,13)         174.6011         estimate D2E/DX2                !
 ! D159  D(11,9,10,24)         -88.7253         estimate D2E/DX2                !
 ! D160  D(12,9,10,13)        -172.6596         estimate D2E/DX2                !
 ! D161  D(12,9,10,24)         -75.9861         estimate D2E/DX2                !
 ! D162  D(26,9,10,13)         -87.0596         estimate D2E/DX2                !
 ! D163  D(26,9,10,24)           9.6139         estimate D2E/DX2                !
 ! D164  D(27,9,10,13)        -133.8371         estimate D2E/DX2                !
 ! D165  D(27,9,10,24)         -37.1635         estimate D2E/DX2                !
 ! D166  D(4,9,12,5)             2.5903         estimate D2E/DX2                !
 ! D167  D(4,9,12,14)          -89.1049         estimate D2E/DX2                !
 ! D168  D(4,9,12,15)          165.9345         estimate D2E/DX2                !
 ! D169  D(4,9,12,21)          -37.2174         estimate D2E/DX2                !
 ! D170  D(6,9,12,5)            50.636          estimate D2E/DX2                !
 ! D171  D(6,9,12,14)          -41.0593         estimate D2E/DX2                !
 ! D172  D(6,9,12,15)         -146.0199         estimate D2E/DX2                !
 ! D173  D(6,9,12,21)           10.8282         estimate D2E/DX2                !
 ! D174  D(8,9,12,5)           114.4916         estimate D2E/DX2                !
 ! D175  D(8,9,12,14)           22.7963         estimate D2E/DX2                !
 ! D176  D(8,9,12,15)          -82.1643         estimate D2E/DX2                !
 ! D177  D(8,9,12,21)           74.6838         estimate D2E/DX2                !
 ! D178  D(10,9,12,5)          -92.2519         estimate D2E/DX2                !
 ! D179  D(10,9,12,14)         176.0528         estimate D2E/DX2                !
 ! D180  D(10,9,12,15)          71.0922         estimate D2E/DX2                !
 ! D181  D(10,9,12,21)        -132.0597         estimate D2E/DX2                !
 ! D182  D(26,9,12,5)         -174.2936         estimate D2E/DX2                !
 ! D183  D(26,9,12,14)          94.0111         estimate D2E/DX2                !
 ! D184  D(26,9,12,15)         -10.9495         estimate D2E/DX2                !
 ! D185  D(26,9,12,21)         145.8986         estimate D2E/DX2                !
 ! D186  D(1,9,26,24)         -178.5317         estimate D2E/DX2                !
 ! D187  D(2,9,26,24)          179.7467         estimate D2E/DX2                !
 ! D188  D(6,9,26,24)          -92.0963         estimate D2E/DX2                !
 ! D189  D(8,9,26,24)          -94.6348         estimate D2E/DX2                !
 ! D190  D(10,9,26,24)          -9.0935         estimate D2E/DX2                !
 ! D191  D(11,9,26,24)          72.9043         estimate D2E/DX2                !
 ! D192  D(12,9,26,24)         127.5473         estimate D2E/DX2                !
 ! D193  D(1,9,27,15)          -21.5714         estimate D2E/DX2                !
 ! D194  D(1,9,27,28)          140.018          estimate D2E/DX2                !
 ! D195  D(1,9,27,29)         -116.9155         estimate D2E/DX2                !
 ! D196  D(2,9,27,15)           22.5778         estimate D2E/DX2                !
 ! D197  D(2,9,27,28)         -175.8329         estimate D2E/DX2                !
 ! D198  D(2,9,27,29)          -72.7664         estimate D2E/DX2                !
 ! D199  D(4,9,27,15)          -95.1142         estimate D2E/DX2                !
 ! D200  D(4,9,27,28)           66.4752         estimate D2E/DX2                !
 ! D201  D(4,9,27,29)          169.5417         estimate D2E/DX2                !
 ! D202  D(8,9,27,15)          104.4161         estimate D2E/DX2                !
 ! D203  D(8,9,27,28)          -93.9945         estimate D2E/DX2                !
 ! D204  D(8,9,27,29)            9.072          estimate D2E/DX2                !
 ! D205  D(10,9,27,15)        -174.4968         estimate D2E/DX2                !
 ! D206  D(10,9,27,28)         -12.9075         estimate D2E/DX2                !
 ! D207  D(10,9,27,29)          90.159          estimate D2E/DX2                !
 ! D208  D(9,10,13,7)          -82.4583         estimate D2E/DX2                !
 ! D209  D(9,10,13,8)           10.6929         estimate D2E/DX2                !
 ! D210  D(9,10,13,16)          32.7205         estimate D2E/DX2                !
 ! D211  D(9,10,13,17)          88.557          estimate D2E/DX2                !
 ! D212  D(9,10,13,18)         -66.0293         estimate D2E/DX2                !
 ! D213  D(9,10,13,36)         138.6882         estimate D2E/DX2                !
 ! D214  D(9,10,13,37)        -168.5384         estimate D2E/DX2                !
 ! D215  D(9,10,13,39)        -177.8564         estimate D2E/DX2                !
 ! D216  D(24,10,13,7)         177.0127         estimate D2E/DX2                !
 ! D217  D(24,10,13,8)         -89.8361         estimate D2E/DX2                !
 ! D218  D(24,10,13,16)        -67.8084         estimate D2E/DX2                !
 ! D219  D(24,10,13,17)        -11.972          estimate D2E/DX2                !
 ! D220  D(24,10,13,18)       -166.5582         estimate D2E/DX2                !
 ! D221  D(24,10,13,36)         38.1593         estimate D2E/DX2                !
 ! D222  D(24,10,13,37)         90.9326         estimate D2E/DX2                !
 ! D223  D(24,10,13,39)         81.6146         estimate D2E/DX2                !
 ! D224  D(9,10,24,17)         -85.9976         estimate D2E/DX2                !
 ! D225  D(9,10,24,25)         175.0523         estimate D2E/DX2                !
 ! D226  D(9,10,24,26)          -9.3806         estimate D2E/DX2                !
 ! D227  D(9,10,24,28)          82.3349         estimate D2E/DX2                !
 ! D228  D(9,10,24,30)          65.8422         estimate D2E/DX2                !
 ! D229  D(9,10,24,33)        -168.5168         estimate D2E/DX2                !
 ! D230  D(9,10,24,36)        -132.8957         estimate D2E/DX2                !
 ! D231  D(13,10,24,17)         11.7891         estimate D2E/DX2                !
 ! D232  D(13,10,24,25)        -87.161          estimate D2E/DX2                !
 ! D233  D(13,10,24,26)         88.4061         estimate D2E/DX2                !
 ! D234  D(13,10,24,28)       -179.8784         estimate D2E/DX2                !
 ! D235  D(13,10,24,30)        163.6289         estimate D2E/DX2                !
 ! D236  D(13,10,24,33)        -70.7301         estimate D2E/DX2                !
 ! D237  D(13,10,24,36)        -35.109          estimate D2E/DX2                !
 ! D238  D(9,11,12,27)         -80.4352         estimate D2E/DX2                !
 ! D239  D(1,12,21,22)         143.4884         estimate D2E/DX2                !
 ! D240  D(1,12,21,23)         -32.9729         estimate D2E/DX2                !
 ! D241  D(2,12,21,22)        -169.9277         estimate D2E/DX2                !
 ! D242  D(2,12,21,23)          13.611          estimate D2E/DX2                !
 ! D243  D(9,12,21,22)         139.5738         estimate D2E/DX2                !
 ! D244  D(9,12,21,23)         -36.8875         estimate D2E/DX2                !
 ! D245  D(11,12,21,22)         72.7644         estimate D2E/DX2                !
 ! D246  D(11,12,21,23)       -103.6969         estimate D2E/DX2                !
 ! D247  D(15,12,21,22)        -68.0193         estimate D2E/DX2                !
 ! D248  D(15,12,21,23)        115.5195         estimate D2E/DX2                !
 ! D249  D(1,12,27,26)          40.5178         estimate D2E/DX2                !
 ! D250  D(1,12,27,28)         -72.773          estimate D2E/DX2                !
 ! D251  D(1,12,27,29)         143.3802         estimate D2E/DX2                !
 ! D252  D(2,12,27,26)          -6.781          estimate D2E/DX2                !
 ! D253  D(2,12,27,28)        -120.0718         estimate D2E/DX2                !
 ! D254  D(2,12,27,29)          96.0814         estimate D2E/DX2                !
 ! D255  D(5,12,27,26)         107.008          estimate D2E/DX2                !
 ! D256  D(5,12,27,28)          -6.2828         estimate D2E/DX2                !
 ! D257  D(5,12,27,29)        -150.1296         estimate D2E/DX2                !
 ! D258  D(14,12,27,26)       -103.25           estimate D2E/DX2                !
 ! D259  D(14,12,27,28)        143.4592         estimate D2E/DX2                !
 ! D260  D(14,12,27,29)         -0.3876         estimate D2E/DX2                !
 ! D261  D(8,13,17,24)          96.8482         estimate D2E/DX2                !
 ! D262  D(10,13,17,24)         11.9386         estimate D2E/DX2                !
 ! D263  D(16,13,17,24)        179.2395         estimate D2E/DX2                !
 ! D264  D(18,13,17,24)        165.807          estimate D2E/DX2                !
 ! D265  D(37,13,17,24)        -67.8837         estimate D2E/DX2                !
 ! D266  D(39,13,17,24)       -125.3957         estimate D2E/DX2                !
 ! D267  D(8,13,18,6)          -36.6259         estimate D2E/DX2                !
 ! D268  D(8,13,18,19)        -176.2187         estimate D2E/DX2                !
 ! D269  D(8,13,18,20)          -5.1533         estimate D2E/DX2                !
 ! D270  D(8,13,18,42)         157.9144         estimate D2E/DX2                !
 ! D271  D(10,13,18,6)          39.7186         estimate D2E/DX2                !
 ! D272  D(10,13,18,19)        -99.8742         estimate D2E/DX2                !
 ! D273  D(10,13,18,20)         71.1912         estimate D2E/DX2                !
 ! D274  D(10,13,18,42)       -125.7411         estimate D2E/DX2                !
 ! D275  D(17,13,18,6)        -102.7794         estimate D2E/DX2                !
 ! D276  D(17,13,18,19)        117.6278         estimate D2E/DX2                !
 ! D277  D(17,13,18,20)        -71.3068         estimate D2E/DX2                !
 ! D278  D(17,13,18,42)         91.7609         estimate D2E/DX2                !
 ! D279  D(36,13,18,6)        -176.0953         estimate D2E/DX2                !
 ! D280  D(36,13,18,19)         44.3119         estimate D2E/DX2                !
 ! D281  D(36,13,18,20)       -144.6227         estimate D2E/DX2                !
 ! D282  D(36,13,18,42)         18.445          estimate D2E/DX2                !
 ! D283  D(37,13,18,6)         131.9864         estimate D2E/DX2                !
 ! D284  D(37,13,18,19)         -7.6064         estimate D2E/DX2                !
 ! D285  D(37,13,18,20)        163.4591         estimate D2E/DX2                !
 ! D286  D(37,13,18,42)        -33.4733         estimate D2E/DX2                !
 ! D287  D(39,13,18,6)         178.1169         estimate D2E/DX2                !
 ! D288  D(39,13,18,19)         38.5241         estimate D2E/DX2                !
 ! D289  D(39,13,18,20)       -150.4105         estimate D2E/DX2                !
 ! D290  D(39,13,18,42)         12.6572         estimate D2E/DX2                !
 ! D291  D(7,13,36,24)        -111.7244         estimate D2E/DX2                !
 ! D292  D(7,13,36,25)         -69.2664         estimate D2E/DX2                !
 ! D293  D(7,13,36,35)         176.7634         estimate D2E/DX2                !
 ! D294  D(7,13,36,38)          96.1649         estimate D2E/DX2                !
 ! D295  D(8,13,36,24)          47.9933         estimate D2E/DX2                !
 ! D296  D(8,13,36,25)          90.4512         estimate D2E/DX2                !
 ! D297  D(8,13,36,35)         -23.5189         estimate D2E/DX2                !
 ! D298  D(8,13,36,38)        -104.1174         estimate D2E/DX2                !
 ! D299  D(10,13,36,24)        -31.2311         estimate D2E/DX2                !
 ! D300  D(10,13,36,25)         11.2269         estimate D2E/DX2                !
 ! D301  D(10,13,36,35)       -102.7433         estimate D2E/DX2                !
 ! D302  D(10,13,36,38)        176.6582         estimate D2E/DX2                !
 ! D303  D(16,13,36,24)        133.845          estimate D2E/DX2                !
 ! D304  D(16,13,36,25)        176.303          estimate D2E/DX2                !
 ! D305  D(16,13,36,35)         62.3328         estimate D2E/DX2                !
 ! D306  D(16,13,36,38)        -18.2657         estimate D2E/DX2                !
 ! D307  D(18,13,36,24)        173.764          estimate D2E/DX2                !
 ! D308  D(18,13,36,25)       -143.778          estimate D2E/DX2                !
 ! D309  D(18,13,36,35)        102.2518         estimate D2E/DX2                !
 ! D310  D(18,13,36,38)         21.6533         estimate D2E/DX2                !
 ! D311  D(7,13,39,38)        -172.1671         estimate D2E/DX2                !
 ! D312  D(7,13,39,40)         -21.7002         estimate D2E/DX2                !
 ! D313  D(7,13,39,41)          80.6114         estimate D2E/DX2                !
 ! D314  D(7,13,39,42)          29.1029         estimate D2E/DX2                !
 ! D315  D(8,13,39,38)          86.851          estimate D2E/DX2                !
 ! D316  D(8,13,39,40)        -122.6821         estimate D2E/DX2                !
 ! D317  D(8,13,39,41)         -20.3705         estimate D2E/DX2                !
 ! D318  D(8,13,39,42)         -71.879          estimate D2E/DX2                !
 ! D319  D(10,13,39,38)        -80.4077         estimate D2E/DX2                !
 ! D320  D(10,13,39,40)         70.0592         estimate D2E/DX2                !
 ! D321  D(10,13,39,41)        172.3708         estimate D2E/DX2                !
 ! D322  D(10,13,39,42)        120.8623         estimate D2E/DX2                !
 ! D323  D(17,13,39,38)          8.6241         estimate D2E/DX2                !
 ! D324  D(17,13,39,40)        159.091          estimate D2E/DX2                !
 ! D325  D(17,13,39,41)        -98.5974         estimate D2E/DX2                !
 ! D326  D(17,13,39,42)       -150.1059         estimate D2E/DX2                !
 ! D327  D(18,13,39,38)        144.7181         estimate D2E/DX2                !
 ! D328  D(18,13,39,40)        -64.815          estimate D2E/DX2                !
 ! D329  D(18,13,39,41)         37.4966         estimate D2E/DX2                !
 ! D330  D(18,13,39,42)        -14.0119         estimate D2E/DX2                !
 ! D331  D(39,16,18,6)         117.4758         estimate D2E/DX2                !
 ! D332  D(39,16,18,7)          63.8572         estimate D2E/DX2                !
 ! D333  D(39,16,18,19)        -78.7459         estimate D2E/DX2                !
 ! D334  D(39,16,18,20)        171.8835         estimate D2E/DX2                !
 ! D335  D(39,16,18,42)        -45.1507         estimate D2E/DX2                !
 ! D336  D(18,16,39,36)       -125.7549         estimate D2E/DX2                !
 ! D337  D(18,16,39,37)        -74.925          estimate D2E/DX2                !
 ! D338  D(18,16,39,38)        179.7258         estimate D2E/DX2                !
 ! D339  D(18,16,39,40)         18.6383         estimate D2E/DX2                !
 ! D340  D(18,16,39,41)         90.78           estimate D2E/DX2                !
 ! D341  D(18,16,39,42)         46.544          estimate D2E/DX2                !
 ! D342  D(13,17,24,10)        -11.7223         estimate D2E/DX2                !
 ! D343  D(13,17,24,25)         72.2336         estimate D2E/DX2                !
 ! D344  D(13,17,24,26)        -94.0327         estimate D2E/DX2                !
 ! D345  D(13,17,24,28)        -52.5042         estimate D2E/DX2                !
 ! D346  D(13,17,24,30)       -161.4573         estimate D2E/DX2                !
 ! D347  D(13,17,24,32)        177.4563         estimate D2E/DX2                !
 ! D348  D(13,17,24,33)        124.1984         estimate D2E/DX2                !
 ! D349  D(6,18,42,39)         -60.8062         estimate D2E/DX2                !
 ! D350  D(6,18,42,40)          -8.4037         estimate D2E/DX2                !
 ! D351  D(6,18,42,41)        -116.4012         estimate D2E/DX2                !
 ! D352  D(6,18,42,43)         111.6531         estimate D2E/DX2                !
 ! D353  D(7,18,42,39)         -68.0249         estimate D2E/DX2                !
 ! D354  D(7,18,42,40)         -15.6225         estimate D2E/DX2                !
 ! D355  D(7,18,42,41)        -123.62           estimate D2E/DX2                !
 ! D356  D(7,18,42,43)         104.4344         estimate D2E/DX2                !
 ! D357  D(13,18,42,39)        -11.6776         estimate D2E/DX2                !
 ! D358  D(13,18,42,40)         40.7248         estimate D2E/DX2                !
 ! D359  D(13,18,42,41)        -67.2727         estimate D2E/DX2                !
 ! D360  D(13,18,42,43)        160.7817         estimate D2E/DX2                !
 ! D361  D(16,18,42,39)         39.273          estimate D2E/DX2                !
 ! D362  D(16,18,42,40)         91.6755         estimate D2E/DX2                !
 ! D363  D(16,18,42,41)        -16.322          estimate D2E/DX2                !
 ! D364  D(16,18,42,43)       -148.2676         estimate D2E/DX2                !
 ! D365  D(20,18,42,39)        141.3464         estimate D2E/DX2                !
 ! D366  D(20,18,42,40)       -166.2512         estimate D2E/DX2                !
 ! D367  D(20,18,42,41)         85.7513         estimate D2E/DX2                !
 ! D368  D(20,18,42,43)        -46.1943         estimate D2E/DX2                !
 ! D369  D(5,21,23,1)          -22.6242         estimate D2E/DX2                !
 ! D370  D(12,21,23,1)          33.466          estimate D2E/DX2                !
 ! D371  D(14,21,23,1)          89.591          estimate D2E/DX2                !
 ! D372  D(22,21,23,1)        -144.4589         estimate D2E/DX2                !
 ! D373  D(10,24,26,9)           9.0023         estimate D2E/DX2                !
 ! D374  D(10,24,26,27)         84.0986         estimate D2E/DX2                !
 ! D375  D(17,24,26,9)          93.5947         estimate D2E/DX2                !
 ! D376  D(17,24,26,27)        168.691          estimate D2E/DX2                !
 ! D377  D(28,24,26,9)         -74.6288         estimate D2E/DX2                !
 ! D378  D(28,24,26,27)          0.4675         estimate D2E/DX2                !
 ! D379  D(30,24,26,9)        -125.7927         estimate D2E/DX2                !
 ! D380  D(30,24,26,27)        -50.6964         estimate D2E/DX2                !
 ! D381  D(32,24,26,9)        -178.6013         estimate D2E/DX2                !
 ! D382  D(32,24,26,27)       -103.505          estimate D2E/DX2                !
 ! D383  D(33,24,26,9)         166.3222         estimate D2E/DX2                !
 ! D384  D(33,24,26,27)       -118.5815         estimate D2E/DX2                !
 ! D385  D(36,24,26,9)          81.383          estimate D2E/DX2                !
 ! D386  D(36,24,26,27)        156.4793         estimate D2E/DX2                !
 ! D387  D(10,24,28,27)        -81.0385         estimate D2E/DX2                !
 ! D388  D(17,24,28,27)        -40.3892         estimate D2E/DX2                !
 ! D389  D(25,24,28,27)       -165.9062         estimate D2E/DX2                !
 ! D390  D(26,24,28,27)         -0.4158         estimate D2E/DX2                !
 ! D391  D(32,24,28,27)         87.5972         estimate D2E/DX2                !
 ! D392  D(33,24,28,27)        143.0739         estimate D2E/DX2                !
 ! D393  D(36,24,28,27)       -146.3499         estimate D2E/DX2                !
 ! D394  D(10,24,30,29)        -67.3083         estimate D2E/DX2                !
 ! D395  D(10,24,30,31)        105.9636         estimate D2E/DX2                !
 ! D396  D(17,24,30,29)         69.6266         estimate D2E/DX2                !
 ! D397  D(17,24,30,31)       -117.1015         estimate D2E/DX2                !
 ! D398  D(25,24,30,29)       -167.039          estimate D2E/DX2                !
 ! D399  D(25,24,30,31)          6.2329         estimate D2E/DX2                !
 ! D400  D(26,24,30,29)          5.8362         estimate D2E/DX2                !
 ! D401  D(26,24,30,31)        179.1081         estimate D2E/DX2                !
 ! D402  D(33,24,30,29)        148.168          estimate D2E/DX2                !
 ! D403  D(33,24,30,31)        -38.5601         estimate D2E/DX2                !
 ! D404  D(36,24,30,29)        144.6566         estimate D2E/DX2                !
 ! D405  D(36,24,30,31)        -42.0715         estimate D2E/DX2                !
 ! D406  D(10,24,33,34)       -103.4432         estimate D2E/DX2                !
 ! D407  D(10,24,33,35)         68.3789         estimate D2E/DX2                !
 ! D408  D(17,24,33,34)        177.1075         estimate D2E/DX2                !
 ! D409  D(17,24,33,35)        -11.0704         estimate D2E/DX2                !
 ! D410  D(26,24,33,34)        109.4054         estimate D2E/DX2                !
 ! D411  D(26,24,33,35)        -78.7725         estimate D2E/DX2                !
 ! D412  D(28,24,33,34)         -3.9579         estimate D2E/DX2                !
 ! D413  D(28,24,33,35)        167.8642         estimate D2E/DX2                !
 ! D414  D(30,24,33,34)         39.3012         estimate D2E/DX2                !
 ! D415  D(30,24,33,35)       -148.8767         estimate D2E/DX2                !
 ! D416  D(36,24,33,34)       -143.0292         estimate D2E/DX2                !
 ! D417  D(36,24,33,35)         28.7929         estimate D2E/DX2                !
 ! D418  D(10,24,36,13)         30.9208         estimate D2E/DX2                !
 ! D419  D(10,24,36,35)       -175.6494         estimate D2E/DX2                !
 ! D420  D(10,24,36,37)        -18.853          estimate D2E/DX2                !
 ! D421  D(10,24,36,38)        112.3642         estimate D2E/DX2                !
 ! D422  D(10,24,36,39)         31.1014         estimate D2E/DX2                !
 ! D423  D(26,24,36,13)        -41.9329         estimate D2E/DX2                !
 ! D424  D(26,24,36,35)        111.4968         estimate D2E/DX2                !
 ! D425  D(26,24,36,37)        -91.7067         estimate D2E/DX2                !
 ! D426  D(26,24,36,38)         39.5105         estimate D2E/DX2                !
 ! D427  D(26,24,36,39)        -41.7523         estimate D2E/DX2                !
 ! D428  D(28,24,36,13)         97.496          estimate D2E/DX2                !
 ! D429  D(28,24,36,35)       -109.0743         estimate D2E/DX2                !
 ! D430  D(28,24,36,37)         47.7222         estimate D2E/DX2                !
 ! D431  D(28,24,36,38)        178.9394         estimate D2E/DX2                !
 ! D432  D(28,24,36,39)         97.6766         estimate D2E/DX2                !
 ! D433  D(30,24,36,13)       -172.2553         estimate D2E/DX2                !
 ! D434  D(30,24,36,35)        -18.8256         estimate D2E/DX2                !
 ! D435  D(30,24,36,37)        137.9709         estimate D2E/DX2                !
 ! D436  D(30,24,36,38)        -90.812          estimate D2E/DX2                !
 ! D437  D(30,24,36,39)       -172.0748         estimate D2E/DX2                !
 ! D438  D(32,24,36,13)       -135.2393         estimate D2E/DX2                !
 ! D439  D(32,24,36,35)         18.1905         estimate D2E/DX2                !
 ! D440  D(32,24,36,37)        174.9869         estimate D2E/DX2                !
 ! D441  D(32,24,36,38)        -53.7959         estimate D2E/DX2                !
 ! D442  D(32,24,36,39)       -135.0587         estimate D2E/DX2                !
 ! D443  D(33,24,36,13)       -176.09           estimate D2E/DX2                !
 ! D444  D(33,24,36,35)        -22.6602         estimate D2E/DX2                !
 ! D445  D(33,24,36,37)        134.1363         estimate D2E/DX2                !
 ! D446  D(33,24,36,38)        -94.6466         estimate D2E/DX2                !
 ! D447  D(33,24,36,39)       -175.9094         estimate D2E/DX2                !
 ! D448  D(36,25,33,32)         85.9101         estimate D2E/DX2                !
 ! D449  D(36,25,33,34)       -148.3114         estimate D2E/DX2                !
 ! D450  D(36,25,33,35)        -26.7259         estimate D2E/DX2                !
 ! D451  D(33,25,36,13)       -132.4089         estimate D2E/DX2                !
 ! D452  D(33,25,36,17)        -72.8434         estimate D2E/DX2                !
 ! D453  D(33,25,36,35)         22.046          estimate D2E/DX2                !
 ! D454  D(33,25,36,37)        176.8733         estimate D2E/DX2                !
 ! D455  D(33,25,36,38)         81.1383         estimate D2E/DX2                !
 ! D456  D(33,25,36,39)        173.0709         estimate D2E/DX2                !
 ! D457  D(24,26,27,11)        -84.9032         estimate D2E/DX2                !
 ! D458  D(24,26,27,12)       -138.948          estimate D2E/DX2                !
 ! D459  D(24,26,27,15)        167.9729         estimate D2E/DX2                !
 ! D460  D(24,26,27,28)         -0.4684         estimate D2E/DX2                !
 ! D461  D(24,26,27,29)         86.9959         estimate D2E/DX2                !
 ! D462  D(9,27,28,24)          59.1981         estimate D2E/DX2                !
 ! D463  D(9,27,28,30)         133.0233         estimate D2E/DX2                !
 ! D464  D(11,27,28,24)        108.565          estimate D2E/DX2                !
 ! D465  D(11,27,28,30)       -177.6098         estimate D2E/DX2                !
 ! D466  D(12,27,28,24)        112.5751         estimate D2E/DX2                !
 ! D467  D(12,27,28,30)       -173.5997         estimate D2E/DX2                !
 ! D468  D(15,27,28,24)       -157.598          estimate D2E/DX2                !
 ! D469  D(15,27,28,30)        -83.7728         estimate D2E/DX2                !
 ! D470  D(26,27,28,24)          0.5052         estimate D2E/DX2                !
 ! D471  D(26,27,28,30)         74.3305         estimate D2E/DX2                !
 ! D472  D(29,27,28,24)        -93.1728         estimate D2E/DX2                !
 ! D473  D(29,27,28,30)        -19.3475         estimate D2E/DX2                !
 ! D474  D(9,27,29,30)         -85.9744         estimate D2E/DX2                !
 ! D475  D(11,27,29,30)         81.4797         estimate D2E/DX2                !
 ! D476  D(12,27,29,30)        175.7384         estimate D2E/DX2                !
 ! D477  D(15,27,29,30)        172.5936         estimate D2E/DX2                !
 ! D478  D(26,27,29,30)        -79.9911         estimate D2E/DX2                !
 ! D479  D(28,27,29,30)         20.5123         estimate D2E/DX2                !
 ! D480  D(27,28,30,29)         23.4072         estimate D2E/DX2                !
 ! D481  D(27,28,30,31)        144.2441         estimate D2E/DX2                !
 ! D482  D(27,28,30,32)        -90.0042         estimate D2E/DX2                !
 ! D483  D(27,29,30,24)         34.5968         estimate D2E/DX2                !
 ! D484  D(27,29,30,28)        -22.4444         estimate D2E/DX2                !
 ! D485  D(27,29,30,31)       -140.0776         estimate D2E/DX2                !
 ! D486  D(27,29,30,32)         93.7383         estimate D2E/DX2                !
 ! D487  D(28,30,32,33)        -61.8971         estimate D2E/DX2                !
 ! D488  D(29,30,32,33)       -171.3005         estimate D2E/DX2                !
 ! D489  D(31,30,32,33)         61.9133         estimate D2E/DX2                !
 ! D490  D(30,32,33,25)         61.1026         estimate D2E/DX2                !
 ! D491  D(30,32,33,34)        -62.2337         estimate D2E/DX2                !
 ! D492  D(30,32,33,35)        169.5346         estimate D2E/DX2                !
 ! D493  D(24,33,35,36)        -31.2567         estimate D2E/DX2                !
 ! D494  D(25,33,35,36)         25.3516         estimate D2E/DX2                !
 ! D495  D(32,33,35,36)        -90.6031         estimate D2E/DX2                !
 ! D496  D(34,33,35,36)        142.3333         estimate D2E/DX2                !
 ! D497  D(33,35,36,13)         94.7064         estimate D2E/DX2                !
 ! D498  D(33,35,36,17)         80.9498         estimate D2E/DX2                !
 ! D499  D(33,35,36,24)         26.6876         estimate D2E/DX2                !
 ! D500  D(33,35,36,25)        -23.5507         estimate D2E/DX2                !
 ! D501  D(33,35,36,37)        -93.8992         estimate D2E/DX2                !
 ! D502  D(33,35,36,38)        179.6734         estimate D2E/DX2                !
[...]
 9,0.00102555,-0.00560083,0.00037149,-0.00052517,0.00002966,0.00008163,
 -0.00003245,-0.00004438,-0.00030877,0.00008166,-0.00485010,-0.00360179
 ,-0.00017640,-0.00059552,0.00058297,-0.00019981,-0.00573892,0.00316069
 ,-0.00108776,-0.01811805,-0.00610304,0.01085678,-0.00019633,0.00022423
 ,-0.00212700,0.00026940,0.00008588,-0.00026343,-0.00001292,-0.00001040
 ,0.00001002,-0.00016724,0.00008251,0.00003104,0.00210343,-0.00061709,0
 .00097950,-0.00006283,-0.00095534,0.00016022,0.00021131,0.00010961,-0.
 00029122,-0.00045794,0.00042755,-0.00040973,-0.00010997,0.00007379,0.0
 0020268,0.00010067,-0.00019242,0.00041932,-0.00032330,0.00029178,-0.00
 055595,0.00003714,-0.00000543,-0.00011171,0.00001454,-0.00009942,-0.00
 000646,-0.00176474,-0.00066122,0.00007506,0.00011527,0.00012859,-0.000
 24509,-0.00049900,0.00023391,-0.00005061,0.00036469,0.00133260,-0.0016
 4494,-0.00351646,-0.00028110,-0.00013773,-0.00267379,-0.00034731,0.001
 61494,-0.01614472,-0.01875100,-0.00798524,-0.08631582,0.03911311,0.086
 42271,-0.01258728,-0.01413339,0.01091833,0.18956509,0.00046419,-0.0002
 6008,0.00001313,0.00040129,-0.00001844,-0.00007829,0.00058618,-0.00014
 862,-0.00022739,-0.00015327,-0.00015437,0.00038584,-0.00019454,-0.0000
 1772,-0.00003379,-0.00362319,0.00082494,-0.00019180,0.00002059,-0.0009
 9910,-0.00049895,-0.00017771,0.00053561,-0.00007072,-0.00133674,-0.000
 49244,0.00029625,0.00011902,-0.00017520,-0.00007318,-0.00018745,0.0000
 7220,-0.00014237,0.00047714,0.00061514,0.00043286,0.00251807,0.0008415
 3,-0.00401144,0.00001042,0.00004562,-0.00004519,-0.00000278,-0.0002263
 8,0.00016678,-0.00813543,-0.00402666,-0.00040170,-0.00034021,0.0001803
 0,0.00012531,0.01704138,0.00355769,-0.00143623,-0.01172065,-0.04502788
 ,0.03433039,0.00007933,-0.00066408,0.00340075,0.00023208,-0.00006658,-
 0.00001450,-0.00005930,0.00010562,-0.00005119,-0.00005824,0.00002704,-
 0.00001243,0.00170185,-0.00069251,0.00133668,0.00046519,0.00018043,0.0
 0002204,0.00017261,0.00010888,-0.00020324,-0.00030625,0.00038513,-0.00
 026518,0.00013077,-0.00004935,-0.00015329,0.00003684,-0.00011951,0.000
 22578,-0.00019141,-0.00000302,-0.00043264,-0.00007639,-0.00000357,0.00
 006052,-0.00006144,-0.00009651,0.00005193,-0.00100034,-0.00071122,-0.0
 0004723,0.00005140,0.00010509,-0.00010717,-0.00087741,-0.00014109,0.00
 001100,0.00275299,-0.00084908,0.00035134,0.00029215,-0.00213790,-0.000
 51936,-0.00425569,-0.00206663,0.00248550,-0.02653468,0.00456039,0.0074
 0386,0.03809336,-0.04138142,-0.03479982,-0.00302420,-0.19785133,-0.011
 73113,0.00402900,0.29248166,0.00099175,-0.00040281,-0.00059291,0.00024
 556,-0.00000391,0.00007614,-0.00003343,0.00036026,-0.00001197,-0.00060
 172,-0.00009377,0.00129167,-0.00014623,-0.00015973,0.00004800,-0.00231
 796,-0.00134915,-0.00716001,0.00196687,-0.00148828,0.00040827,0.000029
 11,0.00119366,-0.00023870,-0.00072305,-0.00022803,0.00108530,0.0001547
 8,0.00028649,-0.00002821,-0.00022686,-0.00002725,-0.00009519,0.0003999
 5,0.00047359,0.00050547,-0.00498582,-0.00747759,-0.00000305,0.00003692
 ,0.00010429,-0.00006398,-0.00005584,-0.00011838,-0.00000039,-0.0062323
 6,-0.00218164,0.00164074,-0.00013374,0.00013217,-0.00041130,-0.0136897
 2,-0.00059214,-0.00484307,0.02294485,0.04724497,-0.06855363,-0.0022537
 2,-0.00054153,-0.00057962,0.00004819,-0.00012120,-0.00009449,-0.000037
 06,0.00006118,-0.00002040,-0.00003699,0.00006586,0.00002719,0.00011913
 ,-0.00089960,-0.00008117,0.00051230,0.00020641,0.00079010,0.00009811,0
 .00003857,-0.00014623,-0.00006175,0.00025818,-0.00007070,0.00013684,0.
 00006168,0.00004165,0.00000010,-0.00008855,0.00007851,0.00009519,0.000
 08362,-0.00017646,-0.00000987,-0.00000695,-0.00001830,0.00001699,-0.00
 003837,-0.00001316,-0.00028282,-0.00028710,-0.00007719,0.00002481,0.00
 000278,-0.00003777,-0.00051123,-0.00002236,0.00023562,-0.00086872,0.00
 111554,-0.00251251,0.00176254,-0.00080141,0.00144979,-0.00208024,-0.00
 307310,0.00229688,0.01514821,0.02284842,-0.00199278,0.07743546,-0.0408
 2566,-0.09280038,0.00728533,-0.01525522,-0.01941248,-0.09843452,0.0010
 2489,0.20077893,-0.00011343,0.00017120,0.00009879,-0.00008701,-0.00001
 885,0.00001362,-0.00013982,-0.00002103,-0.00003033,0.00013725,0.000055
 76,-0.00024182,0.00005167,0.00004414,0.00000363,0.00110303,0.00009244,
 0.00078074,-0.00040788,-0.00014260,0.00005184,0.00006180,-0.00010791,-
 0.00001793,0.00010455,-0.00005615,-0.00005311,-0.00021452,-0.00008983,
 0.00015586,0.00005036,0.00004316,-0.00005948,-0.00013733,-0.00008925,-
 0.00014350,0.00180848,0.00071752,0.00030227,-0.00001387,-0.00002393,0.
 00000325,0.00004281,0.00004083,0.00002280,0.00023892,0.00045151,0.0001
 2323,0.00011553,-0.00007285,-0.00001513,-0.00039212,0.00132440,-0.0017
 5297,-0.00267828,0.00393110,-0.00650472,-0.00014733,-0.00006003,-0.000
 48054,-0.00000730,0.00001391,0.00003491,0.00000371,-0.00000035,-0.0000
 0240,0.00001035,-0.00001405,-0.00001100,-0.00004738,-0.00003975,-0.000
 02082,-0.00005200,-0.00016301,0.00015497,0.00000111,-0.00000869,0.0000
 3528,0.00002305,-0.00000508,-0.00001399,0.00001481,-0.00001431,-0.0000
 2938,-0.00000631,0.00001395,-0.00001481,0.00001704,-0.00004758,0.00001
 540,0.00000296,-0.00000625,0.00001198,-0.00001471,-0.00002122,0.000020
 36,-0.00007087,0.00013893,0.00010516,-0.00001677,-0.00004312,0.0000032
 4,0.00016826,0.00001648,-0.00005927,0.00063936,0.00139884,0.00035491,-
 0.00026178,-0.00024215,-0.00007008,0.00152502,-0.00173584,0.00000024,-
 0.00645270,-0.00070070,0.00067321,-0.00275997,0.00098657,0.00058039,-0
 .00194142,-0.00029614,0.00027318,-0.02200074,-0.01387974,0.00223098,0.
 11145296,0.00000626,0.00007372,0.00003588,-0.00001437,-0.00002050,0.00
 002414,-0.00001845,-0.00001746,-0.00000551,0.00002744,0.00002164,-0.00
 009973,0.00001371,0.00000453,-0.00000345,0.00015976,0.00008285,0.00006
 507,-0.00010085,0.00007344,0.00003940,0.00001736,-0.00005672,0.0001024
 1,0.00001731,-0.00003221,-0.00005219,-0.00009895,-0.00021662,0.0001508
 3,0.00002375,-0.00000279,-0.00000668,-0.00002413,-0.00000691,-0.000029
 40,0.00015091,0.00058692,0.00000046,-0.00000526,-0.00001020,-0.0000024
 2,0.00001993,0.00002128,0.00000650,0.00044751,-0.00016432,-0.00043064,
 0.00001098,0.00000960,-0.00001101,-0.00055299,0.00027131,0.00023372,0.
 00464387,-0.00058476,0.00227411,-0.00017570,-0.00003517,0.00002338,-0.
 00000588,0.00002669,-0.00000436,0.00000832,-0.00001567,0.00000668,-0.0
 0000435,-0.00000206,-0.00000379,0.00002695,0.00001442,-0.00003369,-0.0
 0003253,-0.00010622,0.00007117,0.00001125,0.00000065,0.00000750,-0.000
 00438,-0.00002233,0.00000508,-0.00001151,0.00000290,0.00001535,0.00000
 166,-0.00000321,0.00000434,-0.00000230,0.00000879,0.00001026,0.0000114
 4,-0.00000368,-0.00001162,-0.00000619,-0.00001775,-0.00000267,-0.00003
 460,0.00004608,0.00005116,-0.00000454,-0.00001567,-0.00000616,0.000042
 72,0.00000171,-0.00000793,-0.00034175,0.00026136,-0.00001846,-0.000408
 71,-0.00010142,-0.00020435,0.00044461,-0.00037638,0.00017513,0.0028445
 0,0.00166323,-0.00087623,-0.00193792,0.00015575,0.00130823,-0.00388344
 ,-0.00271844,0.00128748,-0.00217632,-0.00768667,0.00150282,-0.10568983
 ,0.24193394,-0.00019710,-0.00011487,-0.00002824,-0.00004426,0.00004444
 ,-0.00003812,-0.00004690,0.00012795,-0.00005261,0.00006143,-0.00006761
 ,-0.00006259,0.00002456,0.00000905,0.00000951,-0.00006239,0.00000670,0
 .00108121,-0.00007622,0.00016875,-0.00040482,-0.00012364,-0.00015611,0
 .00009970,0.00027447,0.00026548,-0.00018530,0.00007382,-0.00008218,-0.
 00007408,0.00003106,-0.00004610,0.00008721,-0.00005280,-0.00011940,-0.
 00005526,0.00065908,0.00132929,-0.00163969,0.00000188,-0.00000529,0.00
 001260,-0.00003052,0.00000201,-0.00004876,0.00018998,-0.00010712,0.000
 13627,-0.00004901,-0.00003679,0.00029404,-0.00114865,-0.00004980,-0.00
 133649,-0.00590504,0.00093157,-0.00439016,-0.00013244,0.00011665,0.000
 89356,-0.00003205,-0.00002262,0.00002322,-0.00000284,0.00000383,-0.000
 00040,0.00001334,-0.00000894,-0.00000351,-0.00025807,0.00020130,-0.000
 13129,-0.00007345,-0.00000307,-0.00014502,-0.00005965,-0.00001228,0.00
 004895,0.00003187,-0.00008007,0.00002964,-0.00004441,-0.00000103,0.000
 03016,-0.00000997,0.00003792,-0.00006863,0.00002643,-0.00000844,0.0000
 7967,-0.00000183,0.00000352,0.00001084,0.00000693,0.00001590,-0.000008
 71,0.00019773,0.00008374,-0.00001456,-0.00000632,-0.00000976,0.0000283
 2,0.00010413,0.00000503,-0.00000020,-0.00007493,-0.00050554,-0.0001556
 1,0.00053190,0.00006245,-0.00007394,0.00079364,0.00076345,-0.00003602,
 -0.00115834,-0.00170884,0.00225463,0.00027426,0.00037471,0.00175809,-0
 .00009679,0.00003859,0.00029127,0.00484899,0.00317508,-0.01223389,-0.0
 4789608,-0.03262985,0.29275434,0.00011049,0.00001202,-0.00001845,0.000
 02654,-0.00001264,0.00001363,-0.00000115,-0.00002073,0.00000561,-0.000
 05074,0.00001417,0.00006131,-0.00001546,-0.00000753,-0.00000190,-0.000
 04805,-0.00004384,-0.00056583,0.00010805,-0.00012402,0.00010114,0.0000
 3937,0.00007829,-0.00004911,-0.00014237,-0.00010034,0.00010346,-0.0000
 1301,0.00005096,0.00000079,-0.00002080,0.00001354,-0.00003538,0.000032
 52,0.00006357,0.00004358,-0.00017353,-0.00059435,0.00043062,0.00000077
 ,0.00000681,-0.00000874,0.00000268,-0.00000762,0.00001098,-0.00047207,
 0.00013000,-0.00001898,-0.00001431,0.00004509,-0.00008160,0.00042459,-
 0.00049920,0.00126448,0.00194230,0.00067131,0.00042598,0.00001723,-0.0
 0001606,-0.00047297,0.00001753,-0.00000987,-0.00000591,-0.00000534,0.0
 0001128,-0.00000550,-0.00000633,0.00000619,0.00000107,0.00009497,-0.00
 008064,0.00003640,0.00002716,0.00000320,0.00004569,0.00002615,0.000005
 40,-0.00001851,-0.00000083,0.00003845,-0.00000223,0.00001154,0.0000049
 1,-0.00000421,0.00000268,-0.00001583,0.00002483,-0.00000222,0.00000934
 ,-0.00004031,-0.00000761,-0.00000302,0.00000524,0.00000048,-0.00000474
 ,0.00000365,-0.00006105,-0.00001797,-0.00000843,-0.00000486,0.00000137
 ,0.00000029,-0.00002085,-0.00000116,0.00000075,-0.00000105,0.00010892,
 0.00001335,-0.00011833,-0.00004951,0.00012987,-0.00029166,-0.00027231,
 0.00006337,0.00018865,0.00051782,-0.00108891,0.00030044,-0.00008759,-0
 .00054652,0.00032830,-0.00019102,-0.00031172,-0.00715886,-0.00011139,0
 .00654297,-0.03932547,0.03065330,0.07760769,0.04212223,0.00001899,0.00
 001559,0.00000361,0.00000783,-0.00000261,0.00000441,0.00001586,-0.0000
 1841,0.00001259,-0.00000812,0.00000406,-0.00000894,-0.00000504,-0.0000
 0174,-0.00000191,-0.00001532,0.00001260,-0.00006734,-0.00000485,-0.000
 01181,-0.00001055,0.00000527,0.00001070,-0.00000763,-0.00003735,-0.000
 03712,0.00000879,0.00001678,0.00000795,0.00001619,-0.00000472,0.000005
 68,-0.00000846,0.00000870,0.00001159,0.00001499,-0.00017631,-0.0001340
 4,0.00021715,0.00000011,-0.00000012,-0.00000011,0.00000326,-0.00000106
 ,0.00000492,0.00032136,-0.00006539,0.00006799,0.00001482,-0.00000812,-
 0.00003845,-0.00016524,0.00018450,0.00006511,0.00015539,-0.00007278,0.
 00039474,0.00003534,-0.00005128,-0.00004575,-0.00000143,0.00001394,-0.
 00000940,0.00000488,-0.00001093,0.00000511,-0.00000048,0.00000055,0.00
 000339,0.00002529,-0.00000762,0.00002268,0.00000448,0.00001152,0.00000
 027,0.00000231,0.00000162,-0.00000546,-0.00000399,0.00001013,-0.000007
 53,0.00000512,-0.00000519,-0.00000610,0.00000157,-0.00000328,0.0000085
 5,-0.00000991,0.00000057,-0.00000355,0.00000379,0.00000128,-0.00000640
 ,0.00000022,0.00000297,0.00000012,-0.00001781,-0.00002580,-0.00000088,
 0.00000513,0.00000530,-0.00000669,-0.00002462,0.00000212,-0.00000020,0
 .00008080,0.00001106,0.00002411,0.00003037,0.00004015,-0.00003837,-0.0
 0009588,-0.00008414,-0.00001121,-0.00022837,0.00005345,-0.00000265,-0.
 00003637,0.00017367,-0.00036668,0.00025017,-0.00020580,0.00007004,-0.0
 0169781,0.00007456,0.00073042,0.03722126,-0.03781734,-0.06945868,-0.02
 777779,0.03423539,0.00000366,0.00001289,-0.00000217,-0.00000138,-0.000
 00230,-0.00000172,-0.00001355,-0.00000363,-0.00000326,0.00001559,0.000
 00425,0.00001126,0.00000232,0.00000076,0.00000207,0.00002938,0.0000332
 1,-0.00002914,-0.00001916,-0.00002005,0.00008540,0.00000112,-0.0000205
 4,-0.00001245,-0.00001093,-0.00000868,-0.00000352,-0.00000293,0.000003
 44,0.00001018,0.00000335,-0.00000320,-0.00000453,-0.00000042,0.0000008
 2,-0.00000215,0.00021909,0.00017327,-0.00000290,0.00000015,0.00000081,
 -0.00000116,0.00000268,0.00000114,0.00000351,0.00012437,0.00018343,-0.
 00008188,-0.00000131,-0.00002811,-0.00001591,-0.00044955,-0.00023499,-
 0.00046341,-0.00047859,-0.00014963,0.00033612,0.00001380,0.00002372,-0
 .00006723,-0.00000135,-0.00000217,0.00000001,-0.00000039,0.00000085,-0
 .00000022,0.00000097,0.00000030,-0.00000158,-0.00000713,-0.00001917,0.
 00001191,0.00000169,-0.00000128,0.00001614,-0.00000143,0.00000147,0.00
 000168,-0.00000266,0.00000232,-0.00000148,0.00000709,-0.00000409,-0.00
 000744,-0.00000099,0.00000101,-0.00000212,0.00000094,-0.00000661,0.000
 00299,0.00000045,0.00000049,-0.00000009,-0.00000247,-0.00000074,0.0000
 0147,-0.00000272,0.00000952,0.00000882,0.00000046,-0.00000199,-0.00000
 232,0.00001083,-0.00000327,-0.00000241,0.00005004,0.00012453,0.0000799
 7,-0.00000733,-0.00002896,0.00001571,0.00007760,-0.00009869,-0.0000603
 7,-0.00063176,-0.00009500,0.00001051,-0.00009895,-0.00004655,0.0000287
 8,-0.00016867,0.00011308,0.00020360,0.00237811,0.00018464,0.00171596,0
 .07142926,-0.04373150,-0.21578895,-0.07590838,0.04755995,0.22509621,-0
 .00003267,-0.00004267,-0.00001510,0.00000761,0.00001233,-0.00001762,0.
 00000836,0.00002398,-0.00001088,0.00000914,-0.00001867,0.00001963,-0.0
 0000356,0.00000179,0.00000149,-0.00005031,0.00000039,0.00023455,0.0000
 3303,-0.00000451,-0.00006105,-0.00004085,-0.00000522,-0.00001949,-0.00
 001720,0.00003081,-0.00002334,0.00005059,0.00007173,-0.00007018,-0.000
 00515,-0.00000551,0.00001334,0.00000917,-0.00000439,0.00000780,0.00011
 420,0.00003783,-0.00021400,0.00000234,0.00000411,0.00000034,-0.0000110
 4,-0.00001033,-0.00000672,-0.00010481,0.00017382,0.00008127,-0.0000129
 4,-0.00001933,0.00003444,-0.00011001,-0.00027969,-0.00046801,-0.002019
 66,-0.00022599,-0.00047071,0.00007734,0.00000399,0.00009587,0.00000265
 ,-0.00002112,0.00000748,-0.00000670,0.00001300,-0.00000579,0.00000207,
 -0.00000035,-0.00000171,-0.00003198,0.00001028,0.00001488,0.00000880,0
 .00003076,-0.00003518,-0.00000615,0.00000053,0.00000348,0.00000126,0.0
 0000287,0.00000079,0.00000217,-0.00000217,-0.00000582,-0.00000208,0.00
 000499,-0.00000927,0.00000542,-0.00000613,-0.00000151,-0.00000863,0.00
 000087,0.00001078,0.00000143,0.00000769,0.00000012,0.00002424,-0.00001
 091,-0.00002526,-0.00000458,0.00000263,0.00001113,-0.00000307,-0.00000
 343,0.00000278,0.00017059,-0.00009956,-0.00000135,0.00026230,0.0001039
 2,0.00004759,0.00002474,0.00011492,-0.00004120,-0.00150442,-0.00098334
 ,0.00061023,0.00066858,0.00000996,0.00002357,0.00072775,-0.00027592,-0
 .00020558,-0.00190419,0.00663260,-0.00450327,-0.04028401,0.07595141,-0
 .02816946,0.00213132,-0.00792768,0.00343911,0.04181889,0.00001566,-0.0
 0001399,-0.00000614,-0.00000624,0.00000349,0.00000178,-0.00001707,0.00
 001757,-0.00001146,0.00000387,-0.00000404,0.00001209,-0.00000049,0.000
 00124,0.00000083,0.00000335,-0.00000108,-0.00002448,0.00002353,0.00003
 634,-0.00001451,0.00001030,-0.00000555,0.00000317,0.00001049,-0.000006
 86,0.00001206,-0.00001354,-0.00001797,-0.00000176,0.00000015,0.0000007
 2,-0.00000075,-0.00000503,-0.00000093,0.00000123,0.00005081,0.00012038
 ,-0.00011518,-0.00000077,-0.00000027,-0.00000042,-0.00000387,-0.000001
 43,-0.00000499,-0.00006169,-0.00006459,0.00003315,-0.00001224,0.000005
 08,0.00002412,-0.00011213,-0.00004583,0.00010944,0.00000590,0.00028382
 ,0.00016672,-0.00002624,0.00002798,-0.00001131,0.00000332,-0.00000687,
 0.00000375,-0.00000261,0.00000581,-0.00000270,-0.00000025,0.00000012,-
 0.00000126,-0.00001580,0.00002149,-0.00001487,-0.00000500,-0.00000785,
 -0.00001598,-0.00000011,-0.00000174,0.00000470,0.00000819,0.00000032,0
 .00000492,-0.00000768,0.00000015,0.00000275,-0.00000069,0.00000062,-0.
 00000190,0.00000268,0.00000274,0.00000024,-0.00000349,-0.00000096,0.00
 000370,0.00000205,0.00000100,-0.00000008,0.00000783,0.00000287,-0.0000
 0543,-0.00000480,-0.00000082,0.00000597,0.00000856,0.00000065,-0.00000
 018,0.00003984,-0.00003117,-0.00005795,0.00008668,0.00001292,-0.000010
 26,0.00009135,0.00000791,0.00001291,-0.00032319,-0.00031969,0.00015159
 ,0.00020080,0.00005975,0.00004974,-0.00037218,-0.00036221,-0.00016110,
 -0.00081139,0.00136556,-0.00171209,0.07692821,-0.19522631,0.09746701,-
 0.00239678,0.00367364,-0.00392476,-0.07330030,0.19046797,-0.00001492,0
 .00000420,0.00000679,-0.00001132,0.00000029,0.00000125,-0.00000866,-0.
 00000957,0.00002006,0.00001016,0.00000137,0.00000361,0.00000296,-0.000
 00199,-0.00000023,0.00003748,0.00004561,-0.00004259,0.00003195,0.00005
 216,0.00002863,-0.00000501,-0.00001438,0.00000058,0.00005165,0.0000151
 7,-0.00001789,0.00000603,0.00000584,0.00001469,0.00000391,0.00000346,0
 .00000317,-0.00001211,-0.00002073,-0.00000757,-0.00002251,-0.00010617,
 0.00007575,-0.00000023,-0.00000369,0.00000649,0.00000829,0.00000251,0.
 00000614,-0.00008492,-0.00006659,0.00001108,-0.00000276,0.00000763,-0.
 00001465,0.00020015,0.00003604,-0.00011743,-0.00102747,0.00017610,0.00
 012718,0.00000246,0.00001107,0.00001621,-0.00001224,0.00003169,-0.0000
 1122,0.00001147,-0.00002415,0.00001182,0.00000358,-0.00000268,0.000003
 63,0.00004537,-0.00001293,0.00002172,-0.00000272,-0.00000532,0.0000023
 3,-0.00001197,-0.00000121,-0.00000422,-0.00001435,-0.00000085,-0.00002
 156,-0.00000030,-0.00000170,-0.00000102,0.00000225,0.00000202,0.000005
 22,-0.00001915,-0.00000401,0.00001228,0.00001701,0.00000418,-0.0000188
 6,-0.00000099,-0.00000109,0.00000068,-0.00004232,-0.00000489,0.0000261
 1,0.00002255,0.00000641,-0.00002767,0.00000204,0.00001013,-0.00000258,
 -0.00002897,-0.00000081,-0.00000220,-0.00004103,-0.00004810,-0.0000379
 7,-0.00005369,0.00002122,0.00000394,0.00007235,0.00014455,0.00020430,0
 .00006559,-0.00013523,-0.00014409,0.00052810,0.00014483,-0.00020152,-0
 .00162428,0.00006365,-0.00020028,-0.02006214,0.07077053,-0.06294638,-0
 .00774317,0.02087776,-0.01108388,0.02972185,-0.09197233,0.07429019\\0.
 00001537,-0.00000154,-0.00001128,0.00000152,-0.00000087,0.00000272,0.0
 0000080,-0.00001431,-0.00001236,-0.00000548,0.00000547,0.00000322,-0.0
 0000785,0.00000117,-0.00000189,-0.00004829,0.00001777,0.00002182,0.000
 01192,-0.00000084,0.00001101,0.00000182,-0.00000685,-0.00000315,0.0000
 3421,-0.00002878,0.00001042,0.00000051,0.00002011,0.00001208,-0.000002
 74,0.00000345,-0.00000006,0.00002396,0.00001606,0.00000196,-0.00004375
 ,0.00001143,-0.00003203,-0.00000563,0.00000193,0.00000316,-0.00000223,
 -0.00000099,0.00000205,0.00001264,0.00000046,0.00001355,-0.00000823,0.
 00000142,-0.00000058,-0.00001860,-0.00002133,-0.00001193,0.00000301,-0
 .00000134,-0.00000571,0.00002163,0.00001773,0.00000313,0.00000103,0.00
 000087,-0.00000353,-0.00000123,0.00000098,0.00000245,-0.00000050,0.000
 00240,0.00000204,0.00001232,-0.00002892,-0.00000052,-0.00000731,0.0000
 0771,-0.00000620,-0.00000555,0.00000569,-0.00000203,-0.00001210,0.0000
 0205,-0.00000773,0.00000137,0.00000297,-0.00000332,0.00000447,-0.00000
 293,-0.00000344,0.00000048,0.00000827,-0.00000426,0.00000139,-0.000001
 68,0.00000092,-0.00000757,-0.00000655,0.00000639,0.00000559,0.00001130
 ,0.00000472,-0.00000357,-0.00000275,-0.00000303,-0.00000729,-0.0000008
 1,-0.00000432,0.00003712,-0.00001649,-0.00000186,-0.00000418,-0.000007
 20,0.00000286,-0.00002965,-0.00000690,-0.00002325,0.00006315,-0.000003
 28,0.00006915,-0.00001711,0.00001181,-0.00002114,-0.00000469,-0.000002
 17,0.00000207,-0.00002483,0.00000915,-0.00001055,0.00000199,-0.0000068
 1,-0.00000549,0.00000875,0.00000209,0.00000390,0.00000332,0.00000106,0
 .00000003\\\@
 The archive entry for this job was punched.


 REPARTEE - WHAT YOU THINK OF AFTER YOU BECOME A DEPARTEE.
 Job cpu time:       1 days 15 hours 27 minutes 10.3 seconds.
 Elapsed time:       0 days  0 hours 49 minutes 27.4 seconds.
 File lengths (MBytes):  RWF=   4912 Int=      0 D2E=      0 Chk=     68 Scr=      2
 Normal termination of Gaussian 16 at Wed Jan 25 11:47:56 2023.
