 Entering Gaussian System, Link 0=/apps/GAU16/avx2/g16/g16
 Initial command:
 /apps/GAU16/avx2//g16/l1.exe "/localscratch/chegho/Gau-77892.inp" -scrdir="/localscratch/chegho/"
 Entering Link 1 = /apps/GAU16/avx2//g16/l1.exe PID=     77894.
  
 Copyright (c) 1988-2019, Gaussian, Inc.  All Rights Reserved.
  
 This is part of the Gaussian(R) 16 program.  It is based on
 the Gaussian(R) 09 system (copyright 2009, Gaussian, Inc.),
 the Gaussian(R) 03 system (copyright 2003, Gaussian, Inc.),
 the Gaussian(R) 98 system (copyright 1998, Gaussian, Inc.),
 the Gaussian(R) 94 system (copyright 1995, Gaussian, Inc.),
 the Gaussian 92(TM) system (copyright 1992, Gaussian, Inc.),
 the Gaussian 90(TM) system (copyright 1990, Gaussian, Inc.),
 the Gaussian 88(TM) system (copyright 1988, Gaussian, Inc.),
 the Gaussian 86(TM) system (copyright 1986, Carnegie Mellon
 University), and the Gaussian 82(TM) system (copyright 1983,
 Carnegie Mellon University). Gaussian is a federally registered
 trademark of Gaussian, Inc.
  
 This software contains proprietary and confidential information,
 including trade secrets, belonging to Gaussian, Inc.
  
 This software is provided under written license and may be
 used, copied, transmitted, or stored only in accord with that
 written license.
  
 The following legend is applicable only to US Government
 contracts under FAR:
  
                    RESTRICTED RIGHTS LEGEND
  
 Use, reproduction and disclosure by the US Government is
 subject to restrictions as set forth in subparagraphs (a)
 and (c) of the Commercial Computer Software - Restricted
 Rights clause in FAR 52.227-19.
  
 Gaussian, Inc.
 340 Quinnipiac St., Bldg. 40, Wallingford CT 06492
  
  
 ---------------------------------------------------------------
 Warning -- This program may not be used in any manner that
 competes with the business of Gaussian, Inc. or will provide
 assistance to any competitor of Gaussian, Inc.  The licensee
 of this program is prohibited from giving any competitor of
 Gaussian, Inc. access to this program.  By using this program,
 the user acknowledges that Gaussian, Inc. is engaged in the
 business of creating and licensing software in the field of
 computational chemistry and represents and warrants to the
 licensee that it is not a competitor of Gaussian, Inc. and that
 it will not use this program in any manner prohibited above.
 ---------------------------------------------------------------
  

 Cite this work as:
 Gaussian 16, Revision C.01,
 M. J. Frisch, G. W. Trucks, H. B. Schlegel, G. E. Scuseria, 
 M. A. Robb, J. R. Cheeseman, G. Scalmani, V. Barone, 
 G. A. Petersson, H. Nakatsuji, X. Li, M. Caricato, A. V. Marenich, 
 J. Bloino, B. G. Janesko, R. Gomperts, B. Mennucci, H. P. Hratchian, 
 J. V. Ortiz, A. F. Izmaylov, J. L. Sonnenberg, D. Williams-Young, 
 F. Ding, F. Lipparini, F. Egidi, J. Goings, B. Peng, A. Petrone, 
 T. Henderson, D. Ranasinghe, V. G. Zakrzewski, J. Gao, N. Rega, 
 G. Zheng, W. Liang, M. Hada, M. Ehara, K. Toyota, R. Fukuda, 
 J. Hasegawa, M. Ishida, T. Nakajima, Y. Honda, O. Kitao, H. Nakai, 
 T. Vreven, K. Throssell, J. A. Montgomery, Jr., J. E. Peralta, 
 F. Ogliaro, M. J. Bearpark, J. J. Heyd, E. N. Brothers, K. N. Kudin, 
 V. N. Staroverov, T. A. Keith, R. Kobayashi, J. Normand, 
 K. Raghavachari, A. P. Rendell, J. C. Burant, S. S. Iyengar, 
 J. Tomasi, M. Cossi, J. M. Millam, M. Klene, C. Adamo, R. Cammi, 
 J. W. Ochterski, R. L. Martin, K. Morokuma, O. Farkas, 
 J. B. Foresman, and D. J. Fox, Gaussian, Inc., Wallingford CT, 2019.
 
 ******************************************
 Gaussian 16:  ES64L-G16RevC.01  3-Jul-2019
                21-Dec-2022 
 ******************************************
 %nprocshared=48
 Will use up to   48 processors via shared memory.
 %mem=100GB
 ---------------------------------------
 # opt freq b3lyp/gen nosymm pseudo=read
 ---------------------------------------
 1/18=20,19=15,26=3,38=1/1,3;
 2/9=110,12=2,15=1,17=6,18=5,40=1/2;
 3/5=7,11=2,16=1,17=8,25=1,30=1,71=1,74=-5/1,2,3;
 4//1;
 5/5=2,38=5/2;
 6/7=2,8=2,9=2,10=2,28=1/1;
 7/30=1/1,2,3,16;
 1/18=20,19=15,26=3/3(2);
 2/9=110,15=1/2;
 99//99;
 2/9=110,15=1/2;
 3/5=7,6=1,11=2,16=1,17=8,25=1,30=1,71=1,74=-5,82=7/1,2,3;
 4/5=5,16=3,69=1/1;
 5/5=2,38=5/2;
 7/30=1/1,2,3,16;
 1/18=20,19=15,26=3/3(-5);
 2/9=110,15=1/2;
 6/7=2,8=2,9=2,10=2,19=2,28=1/1;
 99/9=1/99;
 -------------------
 Title Card Required
 -------------------
 Symbolic Z-matrix:
 Charge =  0 Multiplicity = 1
 42                    0.45308   1.47058   12.30055 
 16                    1.42463   3.60782   12.58905 
 16                   -1.73158   1.95056   13.04418 
 16                   -0.32744   0.99178   10.10831 
 16                    2.31177  -0.11206   11.77001 
 42                   -2.0261    2.62716   10.75319 
 16                   -2.77279   2.1492    8.49117 
 16                   -1.04461   4.63452   10.57377 
 42                    0.95557   3.09918   10.23306 
 16                    0.37449   3.34058   7.81398 
 16                    2.86749   1.89163   9.34998 
 42                    3.18019   2.31576   11.70407 
 42                   -1.82982   4.43073   8.14129 
 16                    4.25908   1.99084   13.98118 
 16                    4.84413   3.96789   11.53531 
 16                   -3.70962   5.82384   8.97111 
 16                   -0.51224   6.55424   8.12731 
 42                   -4.4164    3.594     9.3258 
 16                   -6.65278   2.94765   9.09999 
 16                   -4.19887   3.39478   11.54664 
 42                    2.81567   0.29278   13.98803 
 16                    3.57826  -1.40432   15.00652 
 16                    0.85996   0.93908   14.80879 
 42                    1.63891   5.48042   7.28644 
 16                    0.92467   5.07112   4.99335 
 16                    1.90591   5.47845   9.92181 
 42                    3.641     4.14126   9.54902 
 16                    3.57797   3.9757    7.0493 
 16                    5.33181   6.09915   9.2312 
 42                    4.42584   6.14861   7.21744 
 16                    5.81187   6.49807   5.65872 
 16                    2.64415   7.75978   7.28434 
 42                    1.69524   7.29051   5.12548 
 16                    3.03033   7.64979   3.51996 
 16                   -0.22591   8.37055   5.01484 
 42                   -1.0941    6.10672   5.98128 
 16                   -2.01785   3.9466    5.78963 
 16                   -3.17045   7.30573   5.75481 
 42                   -3.85366   5.3081    6.61105 
 16                   -5.09871   3.39306   5.5308 
 16                   -6.29537   6.32517   7.1426 
 42                   -6.36697   4.15578   7.16605 
 16                   -8.16723   3.01199   5.69672 
 1                    -9.38908   3.2712    6.15364 
 1                    -8.27764   3.64889   4.53437 
 16                   -8.55691   4.87727   8.34577 
 1                    -9.60767   4.39091   7.69135 
 1                    -8.67676   4.24407   9.50921 
 

 GradGradGradGradGradGradGradGradGradGradGradGradGradGradGradGradGradGrad
 Berny optimization.
 Initialization pass.
                           ----------------------------
                           !    Initial Parameters    !
                           ! (Angstroms and Degrees)  !
 --------------------------                            --------------------------
 ! Name  Definition              Value          Derivative Info.                !
 --------------------------------------------------------------------------------
 ! R1    R(1,2)                  2.3654         estimate D2E/DX2                !
 ! R2    R(1,3)                  2.3571         estimate D2E/DX2                !
 ! R3    R(1,4)                  2.3758         estimate D2E/DX2                !
 ! R4    R(1,5)                  2.4982         estimate D2E/DX2                !
 ! R5    R(1,9)                  2.6794         estimate D2E/DX2                !
 ! R6    R(1,12)                 2.9167         estimate D2E/DX2                !
 ! R7    R(1,23)                 2.596          estimate D2E/DX2                !
 ! R8    R(2,9)                  2.4555         estimate D2E/DX2                !
 ! R9    R(2,12)                 2.3526         estimate D2E/DX2                !
 ! R10   R(3,6)                  2.4069         estimate D2E/DX2                !
 ! R11   R(4,6)                  2.4446         estimate D2E/DX2                !
 ! R12   R(4,9)                  2.4704         estimate D2E/DX2                !
 ! R13   R(5,12)                 2.5793         estimate D2E/DX2                !
 ! R14   R(5,21)                 2.3103         estimate D2E/DX2                !
 ! R15   R(6,7)                  2.4295         estimate D2E/DX2                !
 ! R16   R(6,8)                  2.2416         estimate D2E/DX2                !
 ! R17   R(6,9)                  3.0633         estimate D2E/DX2                !
 ! R18   R(6,18)                 2.9472         estimate D2E/DX2                !
 ! R19   R(6,20)                 2.4372         estimate D2E/DX2                !
 ! R20   R(7,13)                 2.4934         estimate D2E/DX2                !
 ! R21   R(7,18)                 2.3421         estimate D2E/DX2                !
 ! R22   R(8,9)                  2.5444         estimate D2E/DX2                !
 ! R23   R(8,13)                 2.5642         estimate D2E/DX2                !
 ! R24   R(9,10)                 2.4996         estimate D2E/DX2                !
 ! R25   R(9,11)                 2.4276         estimate D2E/DX2                !
 ! R26   R(9,12)                 2.7797         estimate D2E/DX2                !
 ! R27   R(9,26)                 2.5809         estimate D2E/DX2                !
 ! R28   R(9,27)                 2.9606         estimate D2E/DX2                !
 ! R29   R(10,13)                2.4808         estimate D2E/DX2                !
 ! R30   R(10,24)                2.5409         estimate D2E/DX2                !
 ! R31   R(11,12)                2.4123         estimate D2E/DX2                !
 ! R32   R(11,27)                2.3872         estimate D2E/DX2                !
 ! R33   R(12,14)                2.5406         estimate D2E/DX2                !
 ! R34   R(12,15)                2.3509         estimate D2E/DX2                !
 ! R35   R(12,21)                3.0727         estimate D2E/DX2                !
 ! R36   R(12,27)                2.8617         estimate D2E/DX2                !
 ! R37   R(13,16)                2.4825         estimate D2E/DX2                !
 ! R38   R(13,17)                2.4991         estimate D2E/DX2                !
 ! R39   R(13,18)                2.9654         estimate D2E/DX2                !
 ! R40   R(13,36)                2.8312         estimate D2E/DX2                !
 ! R41   R(13,37)                2.4083         estimate D2E/DX2                !
 ! R42   R(13,39)                2.6846         estimate D2E/DX2                !
 ! R43   R(14,21)                2.2287         estimate D2E/DX2                !
 ! R44   R(15,27)                2.3287         estimate D2E/DX2                !
 ! R45   R(16,18)                2.3659         estimate D2E/DX2                !
 ! R46   R(16,39)                2.42           estimate D2E/DX2                !
 ! R47   R(17,24)                2.5471         estimate D2E/DX2                !
 ! R48   R(17,36)                2.2681         estimate D2E/DX2                !
 ! R49   R(18,19)                2.3388         estimate D2E/DX2                !
 ! R50   R(18,20)                2.2403         estimate D2E/DX2                !
 ! R51   R(18,42)                2.9639         estimate D2E/DX2                !
 ! R52   R(19,42)                2.2981         estimate D2E/DX2                !
 ! R53   R(21,22)                2.1211         estimate D2E/DX2                !
 ! R54   R(21,23)                2.2172         estimate D2E/DX2                !
 ! R55   R(24,25)                2.4364         estimate D2E/DX2                !
 ! R56   R(24,26)                2.6489         estimate D2E/DX2                !
 ! R57   R(24,28)                2.4658         estimate D2E/DX2                !
 ! R58   R(24,30)                2.8667         estimate D2E/DX2                !
 ! R59   R(24,32)                2.4912         estimate D2E/DX2                !
 ! R60   R(24,33)                2.8195         estimate D2E/DX2                !
 ! R61   R(24,36)                3.0927         estimate D2E/DX2                !
 ! R62   R(25,33)                2.3531         estimate D2E/DX2                !
 ! R63   R(25,36)                2.4746         estimate D2E/DX2                !
 ! R64   R(26,27)                2.2221         estimate D2E/DX2                !
 ! R65   R(27,28)                2.506          estimate D2E/DX2                !
 ! R66   R(27,29)                2.6064         estimate D2E/DX2                !
 ! R67   R(28,30)                2.3385         estimate D2E/DX2                !
 ! R68   R(29,30)                2.2087         estimate D2E/DX2                !
 ! R69   R(30,31)                2.1149         estimate D2E/DX2                !
 ! R70   R(30,32)                2.4031         estimate D2E/DX2                !
 ! R71   R(32,33)                2.4044         estimate D2E/DX2                !
 ! R72   R(33,34)                2.1188         estimate D2E/DX2                !
 ! R73   R(33,35)                2.2067         estimate D2E/DX2                !
 ! R74   R(35,36)                2.6101         estimate D2E/DX2                !
 ! R75   R(36,37)                2.3572         estimate D2E/DX2                !
 ! R76   R(36,38)                2.4083         estimate D2E/DX2                !
 ! R77   R(36,39)                2.941          estimate D2E/DX2                !
 ! R78   R(37,39)                2.4287         estimate D2E/DX2                !
 ! R79   R(38,39)                2.2783         estimate D2E/DX2                !
 ! R80   R(39,40)                2.5268         estimate D2E/DX2                !
 ! R81   R(39,41)                2.6979         estimate D2E/DX2                !
 ! R82   R(39,42)                2.82           estimate D2E/DX2                !
 ! R83   R(40,42)                2.2055         estimate D2E/DX2                !
 ! R84   R(41,42)                2.1707         estimate D2E/DX2                !
 ! R85   R(42,43)                2.59           estimate D2E/DX2                !
 ! R86   R(42,46)                2.59           estimate D2E/DX2                !
 ! R87   R(43,44)                1.33           estimate D2E/DX2                !
 ! R88   R(43,45)                1.33           estimate D2E/DX2                !
 ! R89   R(46,47)                1.33           estimate D2E/DX2                !
 ! R90   R(46,48)                1.33           estimate D2E/DX2                !
 ! A1    A(2,1,3)               99.1034         estimate D2E/DX2                !
 ! A2    A(2,1,4)              115.4407         estimate D2E/DX2                !
 ! A3    A(2,1,5)              107.0208         estimate D2E/DX2                !
 ! A4    A(2,1,23)              90.1589         estimate D2E/DX2                !
 ! A5    A(3,1,4)               91.5849         estimate D2E/DX2                !
 ! A6    A(3,1,5)              152.3225         estimate D2E/DX2                !
 ! A7    A(3,1,9)              107.066          estimate D2E/DX2                !
 ! A8    A(3,1,12)             150.7019         estimate D2E/DX2                !
 ! A9    A(3,1,23)              83.2317         estimate D2E/DX2                !
 ! A10   A(4,1,5)               85.457          estimate D2E/DX2                !
 ! A11   A(4,1,12)             100.1871         estimate D2E/DX2                !
 ! A12   A(4,1,23)             154.3921         estimate D2E/DX2                !
 ! A13   A(5,1,9)               94.684          estimate D2E/DX2                !
 ! A14   A(5,1,23)              87.643          estimate D2E/DX2                !
 ! A15   A(9,1,23)             147.2006         estimate D2E/DX2                !
 ! A16   A(12,1,23)             96.3366         estimate D2E/DX2                !
 ! A17   A(1,3,6)               82.5516         estimate D2E/DX2                !
 ! A18   A(1,4,6)               81.3753         estimate D2E/DX2                !
 ! A19   A(1,5,21)              81.221          estimate D2E/DX2                !
 ! A20   A(3,6,4)               88.7401         estimate D2E/DX2                !
 ! A21   A(3,6,7)              150.2862         estimate D2E/DX2                !
 ! A22   A(3,6,8)              105.9224         estimate D2E/DX2                !
 ! A23   A(3,6,9)               94.9236         estimate D2E/DX2                !
 ! A24   A(3,6,18)             130.728          estimate D2E/DX2                !
 ! A25   A(3,6,20)              83.5546         estimate D2E/DX2                !
 ! A26   A(4,6,7)               80.5805         estimate D2E/DX2                !
 ! A27   A(4,6,8)              105.8849         estimate D2E/DX2                !
 ! A28   A(4,6,18)             130.9411         estimate D2E/DX2                !
 ! A29   A(4,6,20)             156.3612         estimate D2E/DX2                !
 ! A30   A(7,6,8)              103.6632         estimate D2E/DX2                !
 ! A31   A(7,6,9)               99.8679         estimate D2E/DX2                !
 ! A32   A(7,6,20)              95.2258         estimate D2E/DX2                !
 ! A33   A(8,6,18)              91.2939         estimate D2E/DX2                !
 ! A34   A(8,6,20)              97.7216         estimate D2E/DX2                !
 ! A35   A(9,6,18)             131.0455         estimate D2E/DX2                !
 ! A36   A(9,6,20)             150.9875         estimate D2E/DX2                !
 ! A37   A(6,7,13)              80.4681         estimate D2E/DX2                !
 ! A38   A(6,8,13)              82.5699         estimate D2E/DX2                !
 ! A39   A(9,8,13)              93.7695         estimate D2E/DX2                !
 ! A40   A(1,9,6)               65.97           estimate D2E/DX2                !
 ! A41   A(1,9,8)               96.6623         estimate D2E/DX2                !
 ! A42   A(1,9,10)             139.6293         estimate D2E/DX2                !
 ! A43   A(1,9,11)              97.2411         estimate D2E/DX2                !
 ! A44   A(1,9,26)             136.257          estimate D2E/DX2                !
 ! A45   A(1,9,27)             124.2166         estimate D2E/DX2                !
 ! A46   A(2,9,4)              108.9275         estimate D2E/DX2                !
 ! A47   A(2,9,6)               93.1494         estimate D2E/DX2                !
 ! A48   A(2,9,8)               84.0704         estimate D2E/DX2                !
 ! A49   A(2,9,10)             162.3607         estimate D2E/DX2                !
 ! A50   A(2,9,11)             107.5546         estimate D2E/DX2                !
 ! A51   A(2,9,26)              81.6286         estimate D2E/DX2                !
 ! A52   A(2,9,27)              88.5965         estimate D2E/DX2                !
 ! A53   A(4,9,8)               96.5025         estimate D2E/DX2                !
 ! A54   A(4,9,10)              84.9962         estimate D2E/DX2                !
 ! A55   A(4,9,11)              88.0702         estimate D2E/DX2                !
 ! A56   A(4,9,12)             101.6507         estimate D2E/DX2                !
 ! A57   A(4,9,27)             139.4351         estimate D2E/DX2                !
 ! A58   A(6,9,10)              87.3021         estimate D2E/DX2                !
 ! A59   A(6,9,11)             138.7378         estimate D2E/DX2                !
 ! A60   A(6,9,12)             130.219          estimate D2E/DX2                !
 ! A61   A(6,9,26)             121.3953         estimate D2E/DX2                !
 ! A62   A(8,9,10)              83.6023         estimate D2E/DX2                !
 ! A63   A(8,9,12)             136.7472         estimate D2E/DX2                !
 ! A64   A(8,9,26)              75.483          estimate D2E/DX2                !
 ! A65   A(8,9,27)             122.1123         estimate D2E/DX2                !
 ! A66   A(10,9,11)             83.0546         estimate D2E/DX2                !
 ! A67   A(10,9,12)            136.5048         estimate D2E/DX2                !
 ! A68   A(10,9,26)             83.0993         estimate D2E/DX2                !
 ! A69   A(10,9,27)             87.3211         estimate D2E/DX2                !
 ! A70   A(11,9,26)             97.1629         estimate D2E/DX2                !
 ! A71   A(12,9,26)             91.6591         estimate D2E/DX2                !
 ! A72   A(9,10,13)             96.9678         estimate D2E/DX2                !
 ! A73   A(9,10,24)             99.5895         estimate D2E/DX2                !
 ! A74   A(13,10,24)            95.7094         estimate D2E/DX2                !
 ! A75   A(1,12,11)             91.5715         estimate D2E/DX2                !
 ! A76   A(1,12,14)            100.1777         estimate D2E/DX2                !
 ! A77   A(1,12,15)            151.6546         estimate D2E/DX2                !
 ! A78   A(1,12,21)             63.0189         estimate D2E/DX2                !
 ! A79   A(1,12,27)            119.3024         estimate D2E/DX2                !
 ! A80   A(2,12,5)             104.8386         estimate D2E/DX2                !
 ! A81   A(2,12,11)            111.5258         estimate D2E/DX2                !
 ! A82   A(2,12,14)             92.8646         estimate D2E/DX2                !
 ! A83   A(2,12,15)             99.742          estimate D2E/DX2                !
 ! A84   A(2,12,21)             89.6248         estimate D2E/DX2                !
 ! A85   A(2,12,27)             93.0438         estimate D2E/DX2                !
 ! A86   A(5,12,9)              90.5364         estimate D2E/DX2                !
 ! A87   A(5,12,11)             79.3865         estimate D2E/DX2                !
 ! A88   A(5,12,14)             89.982          estimate D2E/DX2                !
 ! A89   A(5,12,15)            154.3731         estimate D2E/DX2                !
 ! A90   A(5,12,27)            132.3705         estimate D2E/DX2                !
 ! A91   A(9,12,14)            148.2354         estimate D2E/DX2                !
 ! A92   A(9,12,15)            109.293          estimate D2E/DX2                !
 ! A93   A(9,12,21)            118.9449         estimate D2E/DX2                !
 ! A94   A(11,12,14)           155.1204         estimate D2E/DX2                !
 ! A95   A(11,12,15)            98.3515         estimate D2E/DX2                !
 ! A96   A(11,12,21)           126.4571         estimate D2E/DX2                !
 ! A97   A(14,12,15)            81.5845         estimate D2E/DX2                !
 ! A98   A(14,12,27)           133.4852         estimate D2E/DX2                !
 ! A99   A(15,12,21)           126.8697         estimate D2E/DX2                !
 ! A100  A(7,13,8)              93.1766         estimate D2E/DX2                !
 ! A101  A(7,13,10)             87.2749         estimate D2E/DX2                !
 ! A102  A(7,13,16)            100.3819         estimate D2E/DX2                !
 ! A103  A(7,13,36)            138.331          estimate D2E/DX2                !
 ! A104  A(7,13,37)             85.6155         estimate D2E/DX2                !
 ! A105  A(7,13,39)             95.3896         estimate D2E/DX2                !
 ! A106  A(8,13,10)             83.5688         estimate D2E/DX2                !
 ! A107  A(8,13,16)             82.5411         estimate D2E/DX2                !
 ! A108  A(8,13,17)             77.0753         estimate D2E/DX2                !
 ! A109  A(8,13,18)             84.871          estimate D2E/DX2                !
 ! A110  A(8,13,36)            126.6637         estimate D2E/DX2                !
 ! A111  A(8,13,39)            138.2104         estimate D2E/DX2                !
 ! A112  A(10,13,16)           164.4718         estimate D2E/DX2                !
 ! A113  A(10,13,17)            84.5021         estimate D2E/DX2                !
 ! A114  A(10,13,18)           134.7277         estimate D2E/DX2                !
 ! A115  A(10,13,36)            85.9041         estimate D2E/DX2                !
 ! A116  A(10,13,37)            81.5008         estimate D2E/DX2                !
 ! A117  A(10,13,39)           137.5812         estimate D2E/DX2                !
 ! A118  A(16,13,17)            85.6565         estimate D2E/DX2                !
 ! A119  A(16,13,36)            96.8689         estimate D2E/DX2                !
 ! A120  A(16,13,37)           112.3391         estimate D2E/DX2                !
 ! A121  A(17,13,18)           134.5768         estimate D2E/DX2                !
 ! A122  A(17,13,37)           101.9181         estimate D2E/DX2                !
 ! A123  A(17,13,39)            96.6941         estimate D2E/DX2                !
 ! A124  A(18,13,36)           134.3021         estimate D2E/DX2                !
 ! A125  A(18,13,37)           105.3802         estimate D2E/DX2                !
 ! A126  A(18,13,39)            70.2659         estimate D2E/DX2                !
 ! A127  A(18,16,39)            85.8464         estimate D2E/DX2                !
 ! A128  A(13,17,24)            95.0996         estimate D2E/DX2                !
 ! A129  A(6,18,13)             65.0761         estimate D2E/DX2                !
 ! A130  A(6,18,16)             98.0195         estimate D2E/DX2                !
 ! A131  A(6,18,19)            137.0226         estimate D2E/DX2                !
 ! A132  A(6,18,42)            161.5964         estimate D2E/DX2                !
 ! A133  A(7,18,16)            108.5623         estimate D2E/DX2                !
 ! A134  A(7,18,19)            117.7839         estimate D2E/DX2                !
 ! A135  A(7,18,20)            103.3125         estimate D2E/DX2                !
 ! A136  A(7,18,42)            108.6076         estimate D2E/DX2                !
 ! A137  A(13,18,19)           150.8628         estimate D2E/DX2                !
 ! A138  A(13,18,20)           109.6557         estimate D2E/DX2                !
 ! A139  A(13,18,42)           103.2669         estimate D2E/DX2                !
 ! A140  A(16,18,19)           122.116          estimate D2E/DX2                !
 ! A141  A(16,18,20)           101.7369         estimate D2E/DX2                !
 ! A142  A(16,18,42)            84.7627         estimate D2E/DX2                !
 ! A143  A(19,18,20)            99.4376         estimate D2E/DX2                !
 ! A144  A(20,18,42)           143.426          estimate D2E/DX2                !
 ! A145  A(5,21,14)            105.7727         estimate D2E/DX2                !
 ! A146  A(5,21,22)            113.5287         estimate D2E/DX2                !
 ! A147  A(5,21,23)            102.3616         estimate D2E/DX2                !
 ! A148  A(12,21,22)           147.248          estimate D2E/DX2                !
 ! A149  A(12,21,23)           100.8288         estimate D2E/DX2                !
 ! A150  A(14,21,22)           112.2251         estimate D2E/DX2                !
 ! A151  A(14,21,23)           110.5064         estimate D2E/DX2                !
 ! A152  A(22,21,23)           111.876          estimate D2E/DX2                !
 ! A153  A(1,23,21)             80.8089         estimate D2E/DX2                !
 ! A154  A(10,24,17)            82.3125         estimate D2E/DX2                !
 ! A155  A(10,24,25)            84.724          estimate D2E/DX2                !
 ! A156  A(10,24,26)            80.9652         estimate D2E/DX2                !
 ! A157  A(10,24,28)            84.1096         estimate D2E/DX2                !
 ! A158  A(10,24,30)           133.2412         estimate D2E/DX2                !
 ! A159  A(10,24,33)           135.2144         estimate D2E/DX2                !
 ! A160  A(10,24,36)            79.5377         estimate D2E/DX2                !
 ! A161  A(17,24,25)            97.6982         estimate D2E/DX2                !
 ! A162  A(17,24,26)            75.9358         estimate D2E/DX2                !
 ! A163  A(17,24,28)           162.3915         estimate D2E/DX2                !
 ! A164  A(17,24,30)           136.947          estimate D2E/DX2                !
 ! A165  A(17,24,32)            87.4398         estimate D2E/DX2                !
 ! A166  A(17,24,33)            89.9566         estimate D2E/DX2                !
 ! A167  A(25,24,26)           164.9763         estimate D2E/DX2                !
 ! A168  A(25,24,28)            92.1491         estimate D2E/DX2                !
 ! A169  A(25,24,30)           107.5477         estimate D2E/DX2                !
 ! A170  A(25,24,32)           105.7365         estimate D2E/DX2                !
 ! A171  A(26,24,28)            90.9145         estimate D2E/DX2                !
 ! A172  A(26,24,30)            85.7637         estimate D2E/DX2                !
 ! A173  A(26,24,32)            87.7561         estimate D2E/DX2                !
 ! A174  A(26,24,33)           139.553          estimate D2E/DX2                !
 ! A175  A(26,24,36)           120.6027         estimate D2E/DX2                !
 ! A176  A(28,24,32)           103.9422         estimate D2E/DX2                !
 ! A177  A(28,24,33)           107.5985         estimate D2E/DX2                !
 ! A178  A(28,24,36)           141.068          estimate D2E/DX2                !
 ! A179  A(30,24,33)            79.1925         estimate D2E/DX2                !
 ! A180  A(30,24,36)           143.2952         estimate D2E/DX2                !
 ! A181  A(32,24,36)            99.8427         estimate D2E/DX2                !
 ! A182  A(33,24,36)            64.1639         estimate D2E/DX2                !
 ! A183  A(33,25,36)            81.3744         estimate D2E/DX2                !
 ! A184  A(9,26,24)             94.7931         estimate D2E/DX2                !
 ! A185  A(24,26,27)            84.9654         estimate D2E/DX2                !
 ! A186  A(9,27,15)            104.2023         estimate D2E/DX2                !
 ! A187  A(9,27,28)            100.6262         estimate D2E/DX2                !
 ! A188  A(9,27,29)            151.7629         estimate D2E/DX2                !
 ! A189  A(11,27,15)            99.6925         estimate D2E/DX2                !
 ! A190  A(11,27,26)           109.1518         estimate D2E/DX2                !
 ! A191  A(11,27,28)            81.1658         estimate D2E/DX2                !
 ! A192  A(11,27,29)           155.2213         estimate D2E/DX2                !
 ! A193  A(12,27,26)            97.5738         estimate D2E/DX2                !
 ! A194  A(12,27,28)           134.8296         estimate D2E/DX2                !
 ! A195  A(12,27,29)           132.4923         estimate D2E/DX2                !
 ! A196  A(15,27,26)           107.7659         estimate D2E/DX2                !
 ! A197  A(15,27,28)           149.1928         estimate D2E/DX2                !
 ! A198  A(15,27,29)            79.908          estimate D2E/DX2                !
 ! A199  A(26,27,28)           100.8049         estimate D2E/DX2                !
 ! A200  A(26,27,29)            94.299          estimate D2E/DX2                !
 ! A201  A(28,27,29)            86.8077         estimate D2E/DX2                !
 ! A202  A(24,28,27)            83.3119         estimate D2E/DX2                !
 ! A203  A(27,28,30)            81.8233         estimate D2E/DX2                !
 ! A204  A(27,29,30)            82.0621         estimate D2E/DX2                !
 ! A205  A(24,30,29)           111.8141         estimate D2E/DX2                !
 ! A206  A(24,30,31)           133.8974         estimate D2E/DX2                !
 ! A207  A(28,30,29)           101.1551         estimate D2E/DX2                !
 ! A208  A(28,30,31)           109.7646         estimate D2E/DX2                !
 ! A209  A(28,30,32)           110.8648         estimate D2E/DX2                !
 ! A210  A(29,30,31)           114.0068         estimate D2E/DX2                !
 ! A211  A(29,30,32)           107.0825         estimate D2E/DX2                !
 ! A212  A(31,30,32)           113.3055         estimate D2E/DX2                !
 ! A213  A(30,32,33)            97.8601         estimate D2E/DX2                !
 ! A214  A(24,33,34)           134.6062         estimate D2E/DX2                !
 ! A215  A(24,33,35)           109.5876         estimate D2E/DX2                !
 ! A216  A(25,33,32)           111.3294         estimate D2E/DX2                !
 ! A217  A(25,33,34)           108.8892         estimate D2E/DX2                !
 ! A218  A(25,33,35)           100.0039         estimate D2E/DX2                !
 ! A219  A(32,33,34)           113.4901         estimate D2E/DX2                !
 ! A220  A(32,33,35)           107.0422         estimate D2E/DX2                !
 ! A221  A(34,33,35)           115.3153         estimate D2E/DX2                !
 ! A222  A(33,35,36)            81.1711         estimate D2E/DX2                !
 ! A223  A(13,36,24)            77.7487         estimate D2E/DX2                !
 ! A224  A(13,36,25)           105.5951         estimate D2E/DX2                !
 ! A225  A(13,36,35)           151.9272         estimate D2E/DX2                !
 ! A226  A(13,36,38)            98.1878         estimate D2E/DX2                !
 ! A227  A(17,36,25)           104.5382         estimate D2E/DX2                !
 ! A228  A(17,36,35)            95.3864         estimate D2E/DX2                !
 ! A229  A(17,36,37)           110.9952         estimate D2E/DX2                !
 ! A230  A(17,36,38)           102.2348         estimate D2E/DX2                !
 ! A231  A(17,36,39)            95.2606         estimate D2E/DX2                !
 ! A232  A(24,36,35)            92.1754         estimate D2E/DX2                !
 ! A233  A(24,36,37)           101.2474         estimate D2E/DX2                !
 ! A234  A(24,36,38)           154.4712         estimate D2E/DX2                !
 ! A235  A(24,36,39)           133.1422         estimate D2E/DX2                !
 ! A236  A(25,36,35)            86.7781         estimate D2E/DX2                !
 ! A237  A(25,36,37)            84.4759         estimate D2E/DX2                !
 ! A238  A(25,36,38)           150.9414         estimate D2E/DX2                !
 ! A239  A(25,36,39)           137.5017         estimate D2E/DX2                !
 ! A240  A(35,36,37)           153.5185         estimate D2E/DX2                !
 ! A241  A(35,36,38)            79.6387         estimate D2E/DX2                !
 ! A242  A(35,36,39)           128.8222         estimate D2E/DX2                !
 ! A243  A(37,36,38)            96.3573         estimate D2E/DX2                !
 ! A244  A(13,39,38)           105.9446         estimate D2E/DX2                !
 ! A245  A(13,39,40)           111.5589         estimate D2E/DX2                !
 ! A246  A(13,39,41)           133.8806         estimate D2E/DX2                !
 ! A247  A(13,39,42)           115.2229         estimate D2E/DX2                !
 ! A248  A(16,39,36)            95.4576         estimate D2E/DX2                !
 ! A249  A(16,39,37)           113.8477         estimate D2E/DX2                !
 ! A250  A(16,39,38)            99.3119         estimate D2E/DX2                !
 ! A251  A(16,39,40)           127.4286         estimate D2E/DX2                !
 ! A252  A(16,39,41)            77.3728         estimate D2E/DX2                !
 ! A253  A(16,39,42)            87.0306         estimate D2E/DX2                !
 ! A254  A(36,39,40)           125.212          estimate D2E/DX2                !
 ! A255  A(36,39,41)           142.0931         estimate D2E/DX2                !
 ! A256  A(37,39,38)            97.9177         estimate D2E/DX2                !
 ! A257  A(37,39,40)            78.6378         estimate D2E/DX2                !
 ! A258  A(37,39,41)           164.1654         estimate D2E/DX2                !
 ! A259  A(37,39,42)           120.7411         estimate D2E/DX2                !
 ! A260  A(38,39,40)           130.6655         estimate D2E/DX2                !
 ! A261  A(38,39,41)            90.8541         estimate D2E/DX2                !
 ! A262  A(38,39,42)           134.3885         estimate D2E/DX2                !
 ! A263  A(40,39,41)            85.6411         estimate D2E/DX2                !
 ! A264  A(18,42,39)            68.5513         estimate D2E/DX2                !
 ! A265  A(18,42,40)            95.5253         estimate D2E/DX2                !
 ! A266  A(18,42,41)           100.1129         estimate D2E/DX2                !
 ! A267  A(18,42,43)           141.9169         estimate D2E/DX2                !
 ! A268  A(18,42,46)           106.1018         estimate D2E/DX2                !
 ! A269  A(19,42,39)           119.4238         estimate D2E/DX2                !
 ! A270  A(19,42,40)           120.9077         estimate D2E/DX2                !
 ! A271  A(19,42,41)           122.5869         estimate D2E/DX2                !
 ! A272  A(19,42,43)            99.1376         estimate D2E/DX2                !
 ! A273  A(19,42,46)            70.0            estimate D2E/DX2                !
 ! A274  A(39,42,43)           133.4942         estimate D2E/DX2                !
 ! A275  A(39,42,46)           136.8349         estimate D2E/DX2                !
 ! A276  A(40,42,41)           108.5806         estimate D2E/DX2                !
 ! A277  A(40,42,43)            80.0            estimate D2E/DX2                !
 ! A278  A(40,42,46)           156.9658         estimate D2E/DX2                !
 ! A279  A(41,42,43)           117.2679         estimate D2E/DX2                !
 ! A280  A(41,42,46)            75.7836         estimate D2E/DX2                !
 ! A281  A(43,42,46)            78.095          estimate D2E/DX2                !
 ! A282  A(42,43,44)           110.9525         estimate D2E/DX2                !
 ! A283  A(42,43,45)           110.0            estimate D2E/DX2                !
 ! A284  A(44,43,45)            97.5072         estimate D2E/DX2                !
 ! A285  A(42,46,47)           110.0            estimate D2E/DX2                !
 ! A286  A(42,46,48)           110.0            estimate D2E/DX2                !
 ! A287  A(47,46,48)           100.6693         estimate D2E/DX2                !
 ! A288  L(4,9,26,2,-1)        190.5562         estimate D2E/DX2                !
 ! A289  L(6,9,27,1,-1)        190.1867         estimate D2E/DX2                !
 ! A290  L(8,9,11,1,-1)        193.9034         estimate D2E/DX2                !
 ! A291  L(21,12,27,2,-1)      182.6685         estimate D2E/DX2                !
 ! A292  L(7,13,17,8,-1)       170.2518         estimate D2E/DX2                !
 ! A293  L(8,13,37,7,-1)       178.7921         estimate D2E/DX2                !
 ! A294  L(10,24,32,17,-1)     169.7523         estimate D2E/DX2                !
 ! A295  L(36,39,42,16,-1)     182.4882         estimate D2E/DX2                !
 ! A296  L(4,9,26,2,-2)        188.9923         estimate D2E/DX2                !
 ! A297  L(6,9,27,1,-2)        188.2903         estimate D2E/DX2                !
 ! A298  L(8,9,11,1,-2)        175.7274         estimate D2E/DX2                !
 ! A299  L(21,12,27,2,-2)      179.315          estimate D2E/DX2                !
 ! A300  L(7,13,17,8,-2)       172.7051         estimate D2E/DX2                !
 ! A301  L(8,13,37,7,-2)       194.9235         estimate D2E/DX2                !
 ! A302  L(10,24,32,17,-2)     170.8837         estimate D2E/DX2                !
 ! A303  L(36,39,42,16,-2)     188.0145         estimate D2E/DX2                !
 ! D1    D(2,1,3,6)             86.068          estimate D2E/DX2                !
 ! D2    D(4,1,3,6)            -30.0139         estimate D2E/DX2                !
 ! D3    D(5,1,3,6)           -113.2465         estimate D2E/DX2                !
 ! D4    D(9,1,3,6)             27.0345         estimate D2E/DX2                !
 ! D5    D(12,1,3,6)            84.2455         estimate D2E/DX2                !
 ! D6    D(23,1,3,6)           175.1404         estimate D2E/DX2                !
 ! D7    D(2,1,4,6)            -71.2618         estimate D2E/DX2                !
 ! D8    D(3,1,4,6)             29.5996         estimate D2E/DX2                !
 ! D9    D(5,1,4,6)           -177.9626         estimate D2E/DX2                !
 ! D10   D(12,1,4,6)          -123.4457         estimate D2E/DX2                !
 ! D11   D(23,1,4,6)           107.1807         estimate D2E/DX2                !
 ! D12   D(2,1,5,21)            70.1851         estimate D2E/DX2                !
 ! D13   D(3,1,5,21)           -89.8437         estimate D2E/DX2                !
 ! D14   D(4,1,5,21)          -174.579          estimate D2E/DX2                !
 ! D15   D(9,1,5,21)           127.9581         estimate D2E/DX2                !
 ! D16   D(23,1,5,21)          -19.2593         estimate D2E/DX2                !
 ! D17   D(3,1,9,6)            -22.8129         estimate D2E/DX2                !
 ! D18   D(3,1,9,8)             12.2907         estimate D2E/DX2                !
 ! D19   D(3,1,9,10)           -75.657          estimate D2E/DX2                !
 ! D20   D(3,1,9,11)          -163.4367         estimate D2E/DX2                !
 ! D21   D(3,1,9,26)            88.2298         estimate D2E/DX2                !
 ! D22   D(3,1,9,27)           148.8968         estimate D2E/DX2                !
 ! D23   D(5,1,9,6)            139.8605         estimate D2E/DX2                !
 ! D24   D(5,1,9,8)            174.9642         estimate D2E/DX2                !
 ! D25   D(5,1,9,10)            87.0165         estimate D2E/DX2                !
 ! D26   D(5,1,9,11)            -0.7633         estimate D2E/DX2                !
 ! D27   D(5,1,9,26)          -109.0968         estimate D2E/DX2                !
 ! D28   D(5,1,9,27)           -48.4297         estimate D2E/DX2                !
 ! D29   D(23,1,9,6)          -127.2183         estimate D2E/DX2                !
 ! D30   D(23,1,9,8)           -92.1146         estimate D2E/DX2                !
 ! D31   D(23,1,9,10)          179.9377         estimate D2E/DX2                !
 ! D32   D(23,1,9,11)           92.1579         estimate D2E/DX2                !
 ! D33   D(23,1,9,26)          -16.1756         estimate D2E/DX2                !
 ! D34   D(23,1,9,27)           44.4915         estimate D2E/DX2                !
 ! D35   D(3,1,12,11)         -114.0829         estimate D2E/DX2                !
 ! D36   D(3,1,12,14)           87.95           estimate D2E/DX2                !
 ! D37   D(3,1,12,15)           -3.1736         estimate D2E/DX2                !
 ! D38   D(3,1,12,21)          115.1428         estimate D2E/DX2                !
 ! D39   D(3,1,12,27)          -66.54           estimate D2E/DX2                !
 ! D40   D(4,1,12,11)           -1.8938         estimate D2E/DX2                !
 ! D41   D(4,1,12,14)         -159.8609         estimate D2E/DX2                !
 ! D42   D(4,1,12,15)          109.0155         estimate D2E/DX2                !
 ! D43   D(4,1,12,21)         -132.6681         estimate D2E/DX2                !
 ! D44   D(4,1,12,27)           45.6491         estimate D2E/DX2                !
 ! D45   D(23,1,12,11)         158.4629         estimate D2E/DX2                !
 ! D46   D(23,1,12,14)           0.4958         estimate D2E/DX2                !
 ! D47   D(23,1,12,15)         -90.6278         estimate D2E/DX2                !
 ! D48   D(23,1,12,21)          27.6887         estimate D2E/DX2                !
 ! D49   D(23,1,12,27)        -153.9942         estimate D2E/DX2                !
 ! D50   D(2,1,23,21)          -86.9034         estimate D2E/DX2                !
 ! D51   D(3,1,23,21)          173.9479         estimate D2E/DX2                !
 ! D52   D(4,1,23,21)           94.503          estimate D2E/DX2                !
 ! D53   D(5,1,23,21)           20.1254         estimate D2E/DX2                !
 ! D54   D(9,1,23,21)          -74.8658         estimate D2E/DX2                !
 ! D55   D(12,1,23,21)         -35.544          estimate D2E/DX2                !
 ! D56   D(1,2,9,12)           -82.8463         estimate D2E/DX2                !
 ! D57   D(1,3,6,4)             29.0828         estimate D2E/DX2                !
 ! D58   D(1,3,6,7)             97.4411         estimate D2E/DX2                !
 ! D59   D(1,3,6,8)            -77.0832         estimate D2E/DX2                !
 ! D60   D(1,3,6,9)            -22.425          estimate D2E/DX2                !
 ! D61   D(1,3,6,18)           176.859          estimate D2E/DX2                !
 ! D62   D(1,3,6,20)          -173.3052         estimate D2E/DX2                !
 ! D63   D(1,4,6,3)            -28.9244         estimate D2E/DX2                !
 ! D64   D(1,4,6,7)            178.9169         estimate D2E/DX2                !
 ! D65   D(1,4,6,8)             77.2783         estimate D2E/DX2                !
 ! D66   D(1,4,6,18)          -176.5843         estimate D2E/DX2                !
 ! D67   D(1,4,6,20)           -99.6387         estimate D2E/DX2                !
 ! D68   D(1,5,21,14)          -92.4901         estimate D2E/DX2                !
 ! D69   D(1,5,21,22)          144.0282         estimate D2E/DX2                !
 ! D70   D(1,5,21,23)           23.2674         estimate D2E/DX2                !
 ! D71   D(3,6,7,13)          -177.4361         estimate D2E/DX2                !
 ! D72   D(4,6,7,13)          -107.0485         estimate D2E/DX2                !
 ! D73   D(8,6,7,13)            -2.8549         estimate D2E/DX2                !
 ! D74   D(9,6,7,13)           -58.7146         estimate D2E/DX2                !
 ! D75   D(20,6,7,13)           96.4149         estimate D2E/DX2                !
 ! D76   D(3,6,8,13)           179.9709         estimate D2E/DX2                !
 ! D77   D(4,6,8,13)            86.6797         estimate D2E/DX2                !
 ! D78   D(7,6,8,13)             2.7609         estimate D2E/DX2                !
 ! D79   D(18,6,8,13)          -46.7844         estimate D2E/DX2                !
 ! D80   D(20,6,8,13)          -94.5673         estimate D2E/DX2                !
 ! D81   D(3,6,9,1)             21.3665         estimate D2E/DX2                !
 ! D82   D(3,6,9,2)            -27.4088         estimate D2E/DX2                !
 ! D83   D(3,6,9,10)           170.248          estimate D2E/DX2                !
 ! D84   D(3,6,9,11)            93.9732         estimate D2E/DX2                !
 ! D85   D(3,6,9,12)            14.57           estimate D2E/DX2                !
 ! D86   D(3,6,9,26)          -109.5208         estimate D2E/DX2                !
 ! D87   D(7,6,9,1)           -132.7659         estimate D2E/DX2                !
 ! D88   D(7,6,9,2)            178.4589         estimate D2E/DX2                !
 ! D89   D(7,6,9,10)            16.1156         estimate D2E/DX2                !
 ! D90   D(7,6,9,11)           -60.1591         estimate D2E/DX2                !
 ! D91   D(7,6,9,12)          -139.5624         estimate D2E/DX2                !
 ! D92   D(7,6,9,26)            96.3469         estimate D2E/DX2                !
 ! D93   D(18,6,9,1)          -178.014          estimate D2E/DX2                !
 ! D94   D(18,6,9,2)           133.2108         estimate D2E/DX2                !
 ! D95   D(18,6,9,10)          -29.1325         estimate D2E/DX2                !
 ! D96   D(18,6,9,11)         -105.4072         estimate D2E/DX2                !
 ! D97   D(18,6,9,12)          175.1895         estimate D2E/DX2                !
 ! D98   D(18,6,9,26)           51.0988         estimate D2E/DX2                !
 ! D99   D(20,6,9,1)           106.9513         estimate D2E/DX2                !
 ! D100  D(20,6,9,2)            58.176          estimate D2E/DX2                !
 ! D101  D(20,6,9,10)         -104.1672         estimate D2E/DX2                !
 ! D102  D(20,6,9,11)          179.558          estimate D2E/DX2                !
 ! D103  D(20,6,9,12)          100.1548         estimate D2E/DX2                !
 ! D104  D(20,6,9,26)          -23.9359         estimate D2E/DX2                !
 ! D105  D(3,6,18,13)          155.9854         estimate D2E/DX2                !
 ! D106  D(3,6,18,16)          111.9137         estimate D2E/DX2                !
 ! D107  D(3,6,18,19)          -47.9308         estimate D2E/DX2                !
 ! D108  D(3,6,18,42)         -150.5326         estimate D2E/DX2                !
 ! D109  D(4,6,18,13)          -68.9032         estimate D2E/DX2                !
 ! D110  D(4,6,18,16)         -112.9749         estimate D2E/DX2                !
 ! D111  D(4,6,18,19)           87.1806         estimate D2E/DX2                !
 ! D112  D(4,6,18,42)          -15.4213         estimate D2E/DX2                !
 ! D113  D(8,6,18,13)           43.556          estimate D2E/DX2                !
 ! D114  D(8,6,18,16)           -0.5157         estimate D2E/DX2                !
 ! D115  D(8,6,18,19)         -160.3602         estimate D2E/DX2                !
 ! D116  D(8,6,18,42)           97.0379         estimate D2E/DX2                !
 ! D117  D(9,6,18,13)            1.8518         estimate D2E/DX2                !
 ! D118  D(9,6,18,16)          -42.2199         estimate D2E/DX2                !
 ! D119  D(9,6,18,19)          157.9356         estimate D2E/DX2                !
 ! D120  D(9,6,18,42)           55.3337         estimate D2E/DX2                !
 ! D121  D(6,7,13,8)             2.4286         estimate D2E/DX2                !
 ! D122  D(6,7,13,10)           85.8278         estimate D2E/DX2                !
 ! D123  D(6,7,13,16)          -80.5632         estimate D2E/DX2                !
 ! D124  D(6,7,13,36)          166.5607         estimate D2E/DX2                !
 ! D125  D(6,7,13,37)          167.5052         estimate D2E/DX2                !
 ! D126  D(6,7,13,39)         -136.6226         estimate D2E/DX2                !
 ! D127  D(13,8,9,1)          -128.6219         estimate D2E/DX2                !
 ! D128  D(13,8,9,2)           178.0919         estimate D2E/DX2                !
 ! D129  D(13,8,9,4)           -73.4634         estimate D2E/DX2                !
 ! D130  D(13,8,9,10)           10.7331         estimate D2E/DX2                !
 ! D131  D(13,8,9,12)          171.8424         estimate D2E/DX2                !
 ! D132  D(13,8,9,26)           95.2325         estimate D2E/DX2                !
 ! D133  D(13,8,9,27)           93.5004         estimate D2E/DX2                !
 ! D134  D(6,8,13,7)            -2.618          estimate D2E/DX2                !
 ! D135  D(6,8,13,10)          -89.5125         estimate D2E/DX2                !
 ! D136  D(6,8,13,16)           97.4467         estimate D2E/DX2                !
 ! D137  D(6,8,13,17)         -175.3231         estimate D2E/DX2                !
 ! D138  D(6,8,13,18)           46.6377         estimate D2E/DX2                !
 ! D139  D(6,8,13,36)         -169.5203         estimate D2E/DX2                !
 ! D140  D(6,8,13,39)           99.1096         estimate D2E/DX2                !
 ! D141  D(9,8,13,7)            76.0787         estimate D2E/DX2                !
 ! D142  D(9,8,13,10)          -10.8158         estimate D2E/DX2                !
 ! D143  D(9,8,13,16)          176.1434         estimate D2E/DX2                !
 ! D144  D(9,8,13,17)          -96.6264         estimate D2E/DX2                !
 ! D145  D(9,8,13,18)          125.3344         estimate D2E/DX2                !
 ! D146  D(9,8,13,36)          -90.8236         estimate D2E/DX2                !
 ! D147  D(9,8,13,39)          177.8063         estimate D2E/DX2                !
 ! D148  D(1,9,10,13)           81.614          estimate D2E/DX2                !
 ! D149  D(1,9,10,24)          178.6383         estimate D2E/DX2                !
 ! D150  D(2,9,10,13)          -57.075          estimate D2E/DX2                !
 ! D151  D(2,9,10,24)           39.9493         estimate D2E/DX2                !
 ! D152  D(4,9,10,13)           85.9778         estimate D2E/DX2                !
 ! D153  D(4,9,10,24)         -176.9978         estimate D2E/DX2                !
 ! D154  D(6,9,10,13)           34.834          estimate D2E/DX2                !
 ! D155  D(6,9,10,24)          131.8584         estimate D2E/DX2                !
 ! D156  D(8,9,10,13)          -11.1573         estimate D2E/DX2                !
 ! D157  D(8,9,10,24)           85.867          estimate D2E/DX2                !
 ! D158  D(11,9,10,13)         174.6377         estimate D2E/DX2                !
 ! D159  D(11,9,10,24)         -88.338          estimate D2E/DX2                !
 ! D160  D(12,9,10,13)        -172.3542         estimate D2E/DX2                !
 ! D161  D(12,9,10,24)         -75.3298         estimate D2E/DX2                !
 ! D162  D(26,9,10,13)         -87.2408         estimate D2E/DX2                !
 ! D163  D(26,9,10,24)           9.7835         estimate D2E/DX2                !
 ! D164  D(27,9,10,13)        -133.8916         estimate D2E/DX2                !
 ! D165  D(27,9,10,24)         -36.8673         estimate D2E/DX2                !
 ! D166  D(4,9,12,5)             2.4976         estimate D2E/DX2                !
 ! D167  D(4,9,12,14)          -88.3347         estimate D2E/DX2                !
 ! D168  D(4,9,12,15)          165.9524         estimate D2E/DX2                !
 ! D169  D(4,9,12,21)          -37.1156         estimate D2E/DX2                !
 ! D170  D(6,9,12,5)            50.7462         estimate D2E/DX2                !
 ! D171  D(6,9,12,14)          -40.0861         estimate D2E/DX2                !
 ! D172  D(6,9,12,15)         -145.7989         estimate D2E/DX2                !
 ! D173  D(6,9,12,21)           11.1331         estimate D2E/DX2                !
 ! D174  D(8,9,12,5)           115.3224         estimate D2E/DX2                !
 ! D175  D(8,9,12,14)           24.4901         estimate D2E/DX2                !
 ! D176  D(8,9,12,15)          -81.2227         estimate D2E/DX2                !
 ! D177  D(8,9,12,21)           75.7092         estimate D2E/DX2                !
 ! D178  D(10,9,12,5)          -92.5469         estimate D2E/DX2                !
 ! D179  D(10,9,12,14)         176.6208         estimate D2E/DX2                !
 ! D180  D(10,9,12,15)          70.9079         estimate D2E/DX2                !
 ! D181  D(10,9,12,21)        -132.1601         estimate D2E/DX2                !
 ! D182  D(26,9,12,5)         -174.2614         estimate D2E/DX2                !
 ! D183  D(26,9,12,14)          94.9063         estimate D2E/DX2                !
 ! D184  D(26,9,12,15)         -10.8065         estimate D2E/DX2                !
 ! D185  D(26,9,12,21)         146.1254         estimate D2E/DX2                !
 ! D186  D(1,9,26,24)         -178.8487         estimate D2E/DX2                !
 ! D187  D(2,9,26,24)          179.5721         estimate D2E/DX2                !
 ! D188  D(6,9,26,24)          -91.8462         estimate D2E/DX2                !
 ! D189  D(8,9,26,24)          -94.4281         estimate D2E/DX2                !
 ! D190  D(10,9,26,24)          -9.2815         estimate D2E/DX2                !
 ! D191  D(11,9,26,24)          72.788          estimate D2E/DX2                !
 ! D192  D(12,9,26,24)         127.398          estimate D2E/DX2                !
 ! D193  D(1,9,27,15)          -21.7688         estimate D2E/DX2                !
 ! D194  D(1,9,27,28)          139.8385         estimate D2E/DX2                !
 ! D195  D(1,9,27,29)         -116.8874         estimate D2E/DX2                !
 ! D196  D(2,9,27,15)           22.4567         estimate D2E/DX2                !
 ! D197  D(2,9,27,28)         -175.9359         estimate D2E/DX2                !
 ! D198  D(2,9,27,29)          -72.6619         estimate D2E/DX2                !
 ! D199  D(4,9,27,15)          -95.5987         estimate D2E/DX2                !
 ! D200  D(4,9,27,28)           66.0087         estimate D2E/DX2                !
 ! D201  D(4,9,27,29)          169.2827         estimate D2E/DX2                !
 ! D202  D(8,9,27,15)          104.5605         estimate D2E/DX2                !
 ! D203  D(8,9,27,28)          -93.8322         estimate D2E/DX2                !
 ! D204  D(8,9,27,29)            9.4418         estimate D2E/DX2                !
 ! D205  D(10,9,27,15)        -174.7083         estimate D2E/DX2                !
 ! D206  D(10,9,27,28)         -13.101          estimate D2E/DX2                !
 ! D207  D(10,9,27,29)          90.173          estimate D2E/DX2                !
 ! D208  D(9,10,13,7)          -82.4373         estimate D2E/DX2                !
 ! D209  D(9,10,13,8)           11.0709         estimate D2E/DX2                !
 ! D210  D(9,10,13,16)          37.7347         estimate D2E/DX2                !
 ! D211  D(9,10,13,17)          88.6391         estimate D2E/DX2                !
 ! D212  D(9,10,13,18)         -65.1439         estimate D2E/DX2                !
 ! D213  D(9,10,13,36)         138.6972         estimate D2E/DX2                !
 ! D214  D(9,10,13,37)        -168.4077         estimate D2E/DX2                !
 ! D215  D(9,10,13,39)        -177.4462         estimate D2E/DX2                !
 ! D216  D(24,10,13,7)         177.1415         estimate D2E/DX2                !
 ! D217  D(24,10,13,8)         -89.3502         estimate D2E/DX2                !
 ! D218  D(24,10,13,16)        -62.6865         estimate D2E/DX2                !
 ! D219  D(24,10,13,17)        -11.7821         estimate D2E/DX2                !
 ! D220  D(24,10,13,18)       -165.565          estimate D2E/DX2                !
 ! D221  D(24,10,13,36)         38.2761         estimate D2E/DX2                !
 ! D222  D(24,10,13,37)         91.1712         estimate D2E/DX2                !
 ! D223  D(24,10,13,39)         82.1326         estimate D2E/DX2                !
 ! D224  D(9,10,24,17)         -86.4699         estimate D2E/DX2                !
 ! D225  D(9,10,24,25)         175.0069         estimate D2E/DX2                !
 ! D226  D(9,10,24,26)          -9.5804         estimate D2E/DX2                !
 ! D227  D(9,10,24,28)          82.2908         estimate D2E/DX2                !
 ! D228  D(9,10,24,30)          65.8112         estimate D2E/DX2                !
 ! D229  D(9,10,24,33)        -168.5909         estimate D2E/DX2                !
 ! D230  D(9,10,24,36)        -133.1916         estimate D2E/DX2                !
 ! D231  D(13,10,24,17)         11.609          estimate D2E/DX2                !
 ! D232  D(13,10,24,25)        -86.9143         estimate D2E/DX2                !
 ! D233  D(13,10,24,26)         88.4985         estimate D2E/DX2                !
 ! D234  D(13,10,24,28)       -179.6304         estimate D2E/DX2                !
 ! D235  D(13,10,24,30)        163.8901         estimate D2E/DX2                !
 ! D236  D(13,10,24,33)        -70.5121         estimate D2E/DX2                !
 ! D237  D(13,10,24,36)        -35.1128         estimate D2E/DX2                !
 ! D238  D(9,11,12,27)         -80.697          estimate D2E/DX2                !
 ! D239  D(1,12,21,22)         143.525          estimate D2E/DX2                !
 ! D240  D(1,12,21,23)         -33.4031         estimate D2E/DX2                !
 ! D241  D(2,12,21,22)        -169.8963         estimate D2E/DX2                !
 ! D242  D(2,12,21,23)          13.1756         estimate D2E/DX2                !
 ! D243  D(9,12,21,22)         139.5612         estimate D2E/DX2                !
 ! D244  D(9,12,21,23)         -37.367          estimate D2E/DX2                !
 ! D245  D(11,12,21,22)         73.2722         estimate D2E/DX2                !
 ! D246  D(11,12,21,23)       -103.6559         estimate D2E/DX2                !
 ! D247  D(15,12,21,22)        -67.9727         estimate D2E/DX2                !
 ! D248  D(15,12,21,23)        115.0991         estimate D2E/DX2                !
 ! D249  D(1,12,27,26)          40.7852         estimate D2E/DX2                !
 ! D250  D(1,12,27,28)         -72.7199         estimate D2E/DX2                !
 ! D251  D(1,12,27,29)         143.7504         estimate D2E/DX2                !
 ! D252  D(2,12,27,26)          -6.6078         estimate D2E/DX2                !
 ! D253  D(2,12,27,28)        -120.1129         estimate D2E/DX2                !
 ! D254  D(2,12,27,29)          96.3574         estimate D2E/DX2                !
 ! D255  D(5,12,27,26)         106.6976         estimate D2E/DX2                !
 ! D256  D(5,12,27,28)          -6.8075         estimate D2E/DX2                !
 ! D257  D(5,12,27,29)        -150.3372         estimate D2E/DX2                !
 ! D258  D(14,12,27,26)       -103.4659         estimate D2E/DX2                !
 ! D259  D(14,12,27,28)        143.029          estimate D2E/DX2                !
 ! D260  D(14,12,27,29)         -0.5007         estimate D2E/DX2                !
 ! D261  D(8,13,17,24)          96.3837         estimate D2E/DX2                !
 ! D262  D(10,13,17,24)         11.7409         estimate D2E/DX2                !
 ! D263  D(16,13,17,24)        179.7141         estimate D2E/DX2                !
 ! D264  D(18,13,17,24)        165.5971         estimate D2E/DX2                !
 ! D265  D(37,13,17,24)        -68.3512         estimate D2E/DX2                !
 ! D266  D(39,13,17,24)       -125.6035         estimate D2E/DX2                !
 ! D267  D(8,13,18,6)          -37.2041         estimate D2E/DX2                !
 ! D268  D(8,13,18,19)         177.3789         estimate D2E/DX2                !
 ! D269  D(8,13,18,20)          -5.9109         estimate D2E/DX2                !
 ! D270  D(8,13,18,42)         157.9065         estimate D2E/DX2                !
 ! D271  D(10,13,18,6)          38.4839         estimate D2E/DX2                !
 ! D272  D(10,13,18,19)       -106.9331         estimate D2E/DX2                !
 ! D273  D(10,13,18,20)         69.7771         estimate D2E/DX2                !
 ! D274  D(10,13,18,42)       -126.4055         estimate D2E/DX2                !
 ! D275  D(17,13,18,6)        -103.3937         estimate D2E/DX2                !
 ! D276  D(17,13,18,19)        111.1893         estimate D2E/DX2                !
 ! D277  D(17,13,18,20)        -72.1005         estimate D2E/DX2                !
 ! D278  D(17,13,18,42)         91.7169         estimate D2E/DX2                !
 ! D279  D(36,13,18,6)        -175.8037         estimate D2E/DX2                !
 ! D280  D(36,13,18,19)         38.7793         estimate D2E/DX2                !
 ! D281  D(36,13,18,20)       -144.5105         estimate D2E/DX2                !
 ! D282  D(36,13,18,42)         19.3069         estimate D2E/DX2                !
 ! D283  D(37,13,18,6)         131.7353         estimate D2E/DX2                !
 ! D284  D(37,13,18,19)        -13.6817         estimate D2E/DX2                !
 ! D285  D(37,13,18,20)        163.0285         estimate D2E/DX2                !
 ! D286  D(37,13,18,42)        -33.1541         estimate D2E/DX2                !
 ! D287  D(39,13,18,6)         176.953          estimate D2E/DX2                !
 ! D288  D(39,13,18,19)         31.536          estimate D2E/DX2                !
 ! D289  D(39,13,18,20)       -151.7538         estimate D2E/DX2                !
 ! D290  D(39,13,18,42)         12.0636         estimate D2E/DX2                !
 ! D291  D(7,13,36,24)        -112.4592         estimate D2E/DX2                !
 ! D292  D(7,13,36,25)         -69.9815         estimate D2E/DX2                !
 ! D293  D(7,13,36,35)         176.4821         estimate D2E/DX2                !
 ! D294  D(7,13,36,38)          93.1632         estimate D2E/DX2                !
 ! D295  D(8,13,36,24)          47.6436         estimate D2E/DX2                !
 ! D296  D(8,13,36,25)          90.1213         estimate D2E/DX2                !
 ! D297  D(8,13,36,35)         -23.4152         estimate D2E/DX2                !
 ! D298  D(8,13,36,38)        -106.7341         estimate D2E/DX2                !
 ! D299  D(10,13,36,24)        -31.211          estimate D2E/DX2                !
 ! D300  D(10,13,36,25)         11.2667         estimate D2E/DX2                !
 ! D301  D(10,13,36,35)       -102.2698         estimate D2E/DX2                !
 ! D302  D(10,13,36,38)        174.4113         estimate D2E/DX2                !
 ! D303  D(16,13,36,24)        133.4382         estimate D2E/DX2                !
 ! D304  D(16,13,36,25)        175.9159         estimate D2E/DX2                !
 ! D305  D(16,13,36,35)         62.3795         estimate D2E/DX2                !
 ! D306  D(16,13,36,38)        -20.9394         estimate D2E/DX2                !
 ! D307  D(18,13,36,24)        172.446          estimate D2E/DX2                !
 ! D308  D(18,13,36,25)       -145.0763         estimate D2E/DX2                !
 ! D309  D(18,13,36,35)        101.3872         estimate D2E/DX2                !
 ! D310  D(18,13,36,38)         18.0683         estimate D2E/DX2                !
 ! D311  D(7,13,39,38)        -169.9781         estimate D2E/DX2                !
 ! D312  D(7,13,39,40)         -22.6716         estimate D2E/DX2                !
 ! D313  D(7,13,39,41)          82.7889         estimate D2E/DX2                !
 ! D314  D(7,13,39,42)          30.1771         estimate D2E/DX2                !
 ! D315  D(8,13,39,38)          89.1228         estimate D2E/DX2                !
 ! D316  D(8,13,39,40)        -123.5706         estimate D2E/DX2                !
 ! D317  D(8,13,39,41)         -18.1101         estimate D2E/DX2                !
 ! D318  D(8,13,39,42)         -70.7219         estimate D2E/DX2                !
 ! D319  D(10,13,39,38)        -78.1182         estimate D2E/DX2                !
 ! D320  D(10,13,39,40)         69.1884         estimate D2E/DX2                !
 ! D321  D(10,13,39,41)        174.6489         estimate D2E/DX2                !
 ! D322  D(10,13,39,42)        122.037          estimate D2E/DX2                !
 ! D323  D(17,13,39,38)         11.0476         estimate D2E/DX2                !
 ! D324  D(17,13,39,40)        158.3542         estimate D2E/DX2                !
 ! D325  D(17,13,39,41)        -96.1853         estimate D2E/DX2                !
 ! D326  D(17,13,39,42)       -148.7971         estimate D2E/DX2                !
 ! D327  D(18,13,39,38)        146.1747         estimate D2E/DX2                !
 ! D328  D(18,13,39,40)        -66.5188         estimate D2E/DX2                !
 ! D329  D(18,13,39,41)         38.9417         estimate D2E/DX2                !
 ! D330  D(18,13,39,42)        -13.6701         estimate D2E/DX2                !
 ! D331  D(39,16,18,6)         117.8116         estimate D2E/DX2                !
 ! D332  D(39,16,18,7)          64.0212         estimate D2E/DX2                !
 ! D333  D(39,16,18,19)        -78.2897         estimate D2E/DX2                !
 ! D334  D(39,16,18,20)        172.5543         estimate D2E/DX2                !
 ! D335  D(39,16,18,42)        -43.871          estimate D2E/DX2                !
 ! D336  D(18,16,39,36)       -125.4057         estimate D2E/DX2                !
 ! D337  D(18,16,39,37)        -75.8792         estimate D2E/DX2                !
 ! D338  D(18,16,39,38)       -178.8881         estimate D2E/DX2                !
 ! D339  D(18,16,39,40)         17.9666         estimate D2E/DX2                !
 ! D340  D(18,16,39,41)         92.3297         estimate D2E/DX2                !
 ! D341  D(18,16,39,42)         46.5798         estimate D2E/DX2                !
 ! D342  D(13,17,24,10)        -11.5112         estimate D2E/DX2                !
 ! D343  D(13,17,24,25)         72.0652         estimate D2E/DX2                !
 ! D344  D(13,17,24,26)        -94.0682         estimate D2E/DX2                !
 ! D345  D(13,17,24,28)        -51.37           estimate D2E/DX2                !
 ! D346  D(13,17,24,30)       -161.753          estimate D2E/DX2                !
 ! D347  D(13,17,24,32)        177.6051         estimate D2E/DX2                !
 ! D348  D(13,17,24,33)        124.2376         estimate D2E/DX2                !
 ! D349  D(6,18,42,39)         -60.095          estimate D2E/DX2                !
 ! D350  D(6,18,42,40)          -6.6918         estimate D2E/DX2                !
 ! D351  D(6,18,42,41)        -116.7168         estimate D2E/DX2                !
 ! D352  D(6,18,42,43)          74.1363         estimate D2E/DX2                !
 ! D353  D(6,18,42,46)         165.2977         estimate D2E/DX2                !
 ! D354  D(7,18,42,39)         -68.2533         estimate D2E/DX2                !
 ! D355  D(7,18,42,40)         -14.8501         estimate D2E/DX2                !
 ! D356  D(7,18,42,41)        -124.8751         estimate D2E/DX2                !
 ! D357  D(7,18,42,43)          65.9779         estimate D2E/DX2                !
 ! D358  D(7,18,42,46)         157.1394         estimate D2E/DX2                !
 ! D359  D(13,18,42,39)        -11.6079         estimate D2E/DX2                !
 ! D360  D(13,18,42,40)         41.7953         estimate D2E/DX2                !
 ! D361  D(13,18,42,41)        -68.2297         estimate D2E/DX2                !
 ! D362  D(13,18,42,43)        122.6233         estimate D2E/DX2                !
 ! D363  D(13,18,42,46)       -146.2152         estimate D2E/DX2                !
 ! D364  D(16,18,42,39)         39.5916         estimate D2E/DX2                !
 ! D365  D(16,18,42,40)         92.9948         estimate D2E/DX2                !
 ! D366  D(16,18,42,41)        -17.0303         estimate D2E/DX2                !
 ! D367  D(16,18,42,43)        173.8228         estimate D2E/DX2                !
 ! D368  D(16,18,42,46)        -95.0157         estimate D2E/DX2                !
 ! D369  D(20,18,42,39)        142.258          estimate D2E/DX2                !
 ! D370  D(20,18,42,40)       -164.3388         estimate D2E/DX2                !
 ! D371  D(20,18,42,41)         85.6362         estimate D2E/DX2                !
 ! D372  D(20,18,42,43)        -83.5107         estimate D2E/DX2                !
 ! D373  D(20,18,42,46)          7.6507         estimate D2E/DX2                !
 ! D374  D(5,21,23,1)          -22.369          estimate D2E/DX2                !
 ! D375  D(12,21,23,1)          33.944          estimate D2E/DX2                !
 ! D376  D(14,21,23,1)          89.907          estimate D2E/DX2                !
 ! D377  D(22,21,23,1)        -144.2658         estimate D2E/DX2                !
 ! D378  D(10,24,26,9)           9.1775         estimate D2E/DX2                !
 ! D379  D(10,24,26,27)         84.3314         estimate D2E/DX2                !
 ! D380  D(17,24,26,9)          93.4497         estimate D2E/DX2                !
 ! D381  D(17,24,26,27)        168.6036         estimate D2E/DX2                !
 ! D382  D(25,24,26,9)          27.0695         estimate D2E/DX2                !
 ! D383  D(25,24,26,27)        102.2234         estimate D2E/DX2                !
 ! D384  D(28,24,26,9)         -74.7108         estimate D2E/DX2                !
 ! D385  D(28,24,26,27)          0.4431         estimate D2E/DX2                !
 ! D386  D(30,24,26,9)        -125.8427         estimate D2E/DX2                !
 ! D387  D(30,24,26,27)        -50.6888         estimate D2E/DX2                !
 ! D388  D(32,24,26,9)        -178.6288         estimate D2E/DX2                !
 ! D389  D(32,24,26,27)       -103.4749         estimate D2E/DX2                !
 ! D390  D(33,24,26,9)         166.2879         estimate D2E/DX2                !
 ! D391  D(33,24,26,27)       -118.5583         estimate D2E/DX2                !
 ! D392  D(36,24,26,9)          81.2586         estimate D2E/DX2                !
 ! D393  D(36,24,26,27)        156.4125         estimate D2E/DX2                !
 ! D394  D(10,24,28,27)        -81.2142         estimate D2E/DX2                !
 ! D395  D(17,24,28,27)        -41.5335         estimate D2E/DX2                !
 ! D396  D(25,24,28,27)       -165.6835         estimate D2E/DX2                !
 ! D397  D(26,24,28,27)         -0.394          estimate D2E/DX2                !
 ! D398  D(32,24,28,27)         87.5209         estimate D2E/DX2                !
 ! D399  D(33,24,28,27)        143.0751         estimate D2E/DX2                !
 ! D400  D(36,24,28,27)       -146.4919         estimate D2E/DX2                !
 ! D401  D(10,24,30,29)        -67.5191         estimate D2E/DX2                !
 ! D402  D(10,24,30,31)        105.8426         estimate D2E/DX2                !
 ! D403  D(17,24,30,29)         70.0098         estimate D2E/DX2                !
 ! D404  D(17,24,30,31)       -116.6284         estimate D2E/DX2                !
 ! D405  D(25,24,30,29)       -167.0154         estimate D2E/DX2                !
 ! D406  D(25,24,30,31)          6.3463         estimate D2E/DX2                !
 ! D407  D(26,24,30,29)          5.8733         estimate D2E/DX2                !
 ! D408  D(26,24,30,31)        179.2351         estimate D2E/DX2                !
 ! D409  D(33,24,30,29)        148.1534         estimate D2E/DX2                !
 ! D410  D(33,24,30,31)        -38.4848         estimate D2E/DX2                !
 ! D411  D(36,24,30,29)        144.8744         estimate D2E/DX2                !
 ! D412  D(36,24,30,31)        -41.7639         estimate D2E/DX2                !
 ! D413  D(10,24,33,34)       -103.2906         estimate D2E/DX2                !
 ! D414  D(10,24,33,35)         68.0037         estimate D2E/DX2                !
 ! D415  D(17,24,33,34)        177.7004         estimate D2E/DX2                !
 ! D416  D(17,24,33,35)        -11.0053         estimate D2E/DX2                !
 ! D417  D(26,24,33,34)        109.7538         estimate D2E/DX2                !
 ! D418  D(26,24,33,35)        -78.9519         estimate D2E/DX2                !
 ! D419  D(28,24,33,34)         -3.6924         estimate D2E/DX2                !
 ! D420  D(28,24,33,35)        167.6019         estimate D2E/DX2                !
 ! D421  D(30,24,33,34)         39.6217         estimate D2E/DX2                !
 ! D422  D(30,24,33,35)       -149.084          estimate D2E/DX2                !
 ! D423  D(36,24,33,34)       -142.5551         estimate D2E/DX2                !
 ! D424  D(36,24,33,35)         28.7392         estimate D2E/DX2                !
 ! D425  D(10,24,36,13)         30.8766         estimate D2E/DX2                !
 ! D426  D(10,24,36,35)       -175.5744         estimate D2E/DX2                !
 ! D427  D(10,24,36,37)        -18.5285         estimate D2E/DX2                !
 ! D428  D(10,24,36,38)        114.1865         estimate D2E/DX2                !
 ! D429  D(10,24,36,39)         30.8662         estimate D2E/DX2                !
 ! D430  D(26,24,36,13)        -41.9809         estimate D2E/DX2                !
 ! D431  D(26,24,36,35)        111.5681         estimate D2E/DX2                !
 ! D432  D(26,24,36,37)        -91.386          estimate D2E/DX2                !
 ! D433  D(26,24,36,38)         41.329          estimate D2E/DX2                !
 ! D434  D(26,24,36,39)        -41.9913         estimate D2E/DX2                !
 ! D435  D(28,24,36,13)         97.6316         estimate D2E/DX2                !
 ! D436  D(28,24,36,35)       -108.8194         estimate D2E/DX2                !
 ! D437  D(28,24,36,37)         48.2265         estimate D2E/DX2                !
 ! D438  D(28,24,36,38)       -179.0585         estimate D2E/DX2                !
 ! D439  D(28,24,36,39)         97.6212         estimate D2E/DX2                !
 ! D440  D(30,24,36,13)       -172.5058         estimate D2E/DX2                !
 ! D441  D(30,24,36,35)        -18.9568         estimate D2E/DX2                !
 ! D442  D(30,24,36,37)        138.0892         estimate D2E/DX2                !
 ! D443  D(30,24,36,38)        -89.1959         estimate D2E/DX2                !
 ! D444  D(30,24,36,39)       -172.5161         estimate D2E/DX2                !
 ! D445  D(32,24,36,13)       -135.2169         estimate D2E/DX2                !
 ! D446  D(32,24,36,35)         18.332          estimate D2E/DX2                !
 ! D447  D(32,24,36,37)        175.378          estimate D2E/DX2                !
 ! D448  D(32,24,36,38)        -51.907          estimate D2E/DX2                !
 ! D449  D(32,24,36,39)       -135.2273         estimate D2E/DX2                !
 ! D450  D(33,24,36,13)       -176.0847         estimate D2E/DX2                !
 ! D451  D(33,24,36,35)        -22.5358         estimate D2E/DX2                !
 ! D452  D(33,24,36,37)        134.5102         estimate D2E/DX2                !
 ! D453  D(33,24,36,38)        -92.7748         estimate D2E/DX2                !
 ! D454  D(33,24,36,39)       -176.0951         estimate D2E/DX2                !
 ! D455  D(36,25,33,32)         86.0387         estimate D2E/DX2                !
 ! D456  D(36,25,33,34)       -148.0974         estimate D2E/DX2                !
 ! D457  D(36,25,33,35)        -26.8139         estimate D2E/DX2                !
 ! D458  D(33,25,36,13)       -132.3008         estimate D2E/DX2                !
 ! D459  D(33,25,36,17)        -72.6375         estimate D2E/DX2                !
 ! D460  D(33,25,36,35)         22.0967         estimate D2E/DX2                !
 ! D461  D(33,25,36,37)        177.0716         estimate D2E/DX2                !
 ! D462  D(33,25,36,38)         83.9198         estimate D2E/DX2                !
 ! D463  D(33,25,36,39)        172.3239         estimate D2E/DX2                !
 ! D464  D(24,26,27,11)        -84.7491         estimate D2E/DX2                !
 ! D465  D(24,26,27,12)       -138.9837         estimate D2E/DX2                !
 ! D466  D(24,26,27,15)        167.8878         estimate D2E/DX2                !
 ! D467  D(24,26,27,28)         -0.4438         estimate D2E/DX2                !
 ! D468  D(24,26,27,29)         87.1201         estimate D2E/DX2                !
 ! D469  D(9,27,28,24)          59.2417         estimate D2E/DX2                !
 ! D470  D(9,27,28,30)         133.1647         estimate D2E/DX2                !
 ! D471  D(11,27,28,24)        108.4375         estimate D2E/DX2                !
 ! D472  D(11,27,28,30)       -177.6395         estimate D2E/DX2                !
 ! D473  D(12,27,28,24)        112.7447         estimate D2E/DX2                !
 ! D474  D(12,27,28,30)       -173.3323         estimate D2E/DX2                !
 ! D475  D(15,27,28,24)       -157.4317         estimate D2E/DX2                !
 ! D476  D(15,27,28,30)        -83.5087         estimate D2E/DX2                !
 ! D477  D(26,27,28,24)          0.4781         estimate D2E/DX2                !
 ! D478  D(26,27,28,30)         74.4012         estimate D2E/DX2                !
 ! D479  D(29,27,28,24)        -93.2939         estimate D2E/DX2                !
 ! D480  D(29,27,28,30)        -19.3709         estimate D2E/DX2                !
 ! D481  D(9,27,29,30)         -86.1023         estimate D2E/DX2                !
 ! D482  D(11,27,29,30)         81.349          estimate D2E/DX2                !
 ! D483  D(12,27,29,30)        175.5722         estimate D2E/DX2                !
 ! D484  D(15,27,29,30)        172.6355         estimate D2E/DX2                !
 ! D485  D(26,27,29,30)        -80.0618         estimate D2E/DX2                !
 ! D486  D(28,27,29,30)         20.5465         estimate D2E/DX2                !
 ! D487  D(27,28,30,29)         23.4729         estimate D2E/DX2                !
 ! D488  D(27,28,30,31)        144.2363         estimate D2E/DX2                !
 ! D489  D(27,28,30,32)        -89.829          estimate D2E/DX2                !
 ! D490  D(27,29,30,24)         34.5455         estimate D2E/DX2                !
[...]
 083,-0.00004608,0.00000553,-0.00001180,-0.00000678,-0.00001523,0.00000
 385,-0.00000994,0.00000821,-0.00000300,0.00001758,-0.00000410,-0.00000
 412,-0.00000040,-0.00000608,0.00000596,0.00000657,0.00000377,0.0000050
 9,0.00001916,0.00019849,-0.00016217,0.00000222,0.00000337,-0.00000239,
 -0.00000622,-0.00000198,-0.00000537,0.00029504,0.00003193,-0.00002840,
 -0.00000040,-0.00001243,0.00003662,-0.00021782,-0.00010661,-0.00024030
 ,-0.00080189,-0.00056501,-0.00063812,0.00004068,-0.00001760,0.00006471
 ,-0.00000518,-0.00001439,0.00000446,-0.00000314,0.00000766,-0.00000272
 ,0.00000363,-0.00000060,-0.00000058,-0.00002157,0.00002419,-0.00000239
 ,-0.00000938,0.00000437,-0.00002249,-0.00000123,0.00000065,0.00000491,
 0.00000789,-0.00000455,0.00000812,-0.00000254,-0.00000140,0.00000441,-
 0.00000146,0.00000267,-0.00000655,0.00000321,0.00000082,0.00000344,-0.
 00000247,-0.00000024,0.00000443,0.00000065,0.00000232,-0.00000141,0.00
 002299,0.00000623,-0.00000853,-0.00000310,-0.00000104,0.00000698,0.000
 01214,-0.00000294,0.00000188,0.00002719,-0.00005624,0.00001636,0.00008
 792,0.00002950,-0.00004414,0.00011588,0.00006013,-0.00007745,-0.000519
 45,-0.00054475,0.00038257,0.00089253,0.00066075,-0.00018753,0.00025339
 ,-0.00065541,0.00061697,-0.00156270,0.00263749,-0.00614721,0.02726715,
 -0.03682198,0.08289457,0.00065261,-0.00101371,-0.00155235,-0.02664249,
 0.03623871,-0.00001658,0.00000750,0.00001097,0.00000022,-0.00000003,-0
 .00000153,0.00002339,-0.00001004,0.00000224,-0.00000161,0.00000300,-0.
 00001985,0.00000007,-0.00000051,-0.00000280,-0.00002424,0.00000895,0.0
 0013325,-0.00005381,-0.00000535,0.00002388,-0.00000484,-0.00002052,0.0
 0000326,0.00000992,0.00000581,-0.00001909,0.00001216,-0.00001016,0.000
 00770,0.00000287,-0.00000153,0.00000432,-0.00000142,-0.00000614,0.0000
 0022,-0.00007075,0.00014493,0.00004510,0.00000074,-0.00000090,0.000002
 34,0.00000305,-0.00000053,0.00000260,0.00026818,-0.00002647,-0.0000846
 8,0.00000740,-0.00002135,-0.00001059,0.00025192,0.00012771,-0.00040270
 ,-0.00128539,-0.00113645,-0.00078930,0.00003885,-0.00001489,0.00006765
 ,-0.00000749,0.00001295,-0.00000434,0.00000434,-0.00001097,0.00000498,
 0.00000253,-0.00000179,0.00000155,0.00001645,0.00000354,0.00002078,-0.
 00000356,-0.00000196,-0.00001585,-0.00000682,0.00000175,-0.00000016,-0
 .00000912,-0.00000188,-0.00001021,0.00000173,-0.00000275,-0.00000328,0
 .00000095,0.00000190,0.00000080,-0.00001143,-0.00000296,0.00000911,0.0
 0000836,0.00000195,-0.00001014,-0.00000060,0.00000149,-0.00000025,-0.0
 0001605,-0.00000231,0.00001050,0.00001168,0.00000337,-0.00001480,0.000
 00487,0.00000274,0.00000068,-0.00001663,-0.00000922,0.00004233,0.00004
 258,0.00005342,-0.00006334,0.00005086,0.00010290,-0.00011163,-0.000249
 09,-0.00050780,0.00033693,0.00057612,0.00052900,0.00014563,0.00004573,
 -0.00004115,0.00014746,-0.00082222,0.00064426,-0.00213558,-0.06335270,
 0.07063606,-0.20068777,-0.00459053,0.00449509,-0.01059357,0.06903591,-
 0.07502343,0.21392730,0.00002659,0.00002636,-0.00000605,-0.00000802,-0
 .00000739,0.00000850,-0.00006533,0.00002454,0.00001371,0.00001162,0.00
 000525,-0.00004264,0.00000531,0.00000242,0.00000059,0.00030035,0.00003
 574,-0.00004201,0.00002054,-0.00009778,-0.00009489,-0.00001093,-0.0000
 1773,-0.00000130,-0.00006297,-0.00004283,0.00001151,-0.00003131,-0.000
 02557,0.00008311,0.00000585,0.00001702,-0.00002608,-0.00002239,-0.0000
 0456,0.00000411,0.00030591,-0.00016702,0.00015989,-0.00000244,-0.00000
 429,-0.00000077,0.00001831,0.00000573,0.00000795,-0.00003323,0.0004515
 3,-0.00012936,-0.00002151,0.00002803,-0.00004274,-0.00096475,-0.000223
 62,0.00059292,-0.00005304,0.00224334,-0.00272566,-0.00013193,-0.000034
 74,-0.00030724,-0.00000520,0.00002465,-0.00000704,0.00000738,-0.000018
 18,0.00000770,-0.00000005,-0.00000222,-0.00000022,0.00007891,-0.000069
 73,0.00001910,0.00000292,-0.00006202,0.00010477,-0.00000041,0.00000502
 ,0.00000112,-0.00000147,0.00001457,-0.00002781,0.00000340,-0.00000586,
 -0.00000729,0.00000066,0.00000033,0.00000731,-0.00001341,-0.00001000,0
 .00000381,0.00001144,0.00000045,-0.00001290,-0.00000590,-0.00000559,0.
 00000272,-0.00009046,0.00001093,0.00005348,0.00001420,-0.00000729,-0.0
 0002397,-0.00000655,0.00002422,-0.00002380,0.00021823,0.00034928,-0.00
 008821,0.00003621,0.00008250,0.00002530,0.00028292,-0.00084785,0.00039
 203,0.00000656,0.00108238,-0.00042570,-0.00230554,0.00027024,0.0033559
 2,-0.00675925,-0.00775483,0.00278961,-0.01104450,0.01080121,0.00377858
 ,-0.00102898,0.00012331,0.00051452,0.00012015,-0.00065071,-0.00050329,
 -0.00009935,-0.00011504,-0.00004064,0.19891572,0.00002383,-0.00000286,
 -0.00000574,0.00001816,-0.00000612,-0.00000685,0.00005637,-0.00004174,
 0.00001950,-0.00002179,0.00000780,0.00004140,-0.00001139,-0.00001083,-
 0.00000111,-0.00028972,0.00004996,-0.00021731,0.00004943,0.00011061,0.
 00007863,-0.00001085,0.00003554,0.00000274,-0.00002769,-0.00000708,0.0
 0000762,0.00003982,0.00002672,-0.00006163,-0.00000930,-0.00000647,0.00
 001457,0.00003783,0.00001480,0.00002273,-0.00070138,-0.00021936,0.0003
 9782,0.00000193,0.00000211,0.00000071,-0.00000329,-0.00000225,0.000002
 71,0.00015344,-0.00031683,0.00006161,-0.00002948,-0.00000217,-0.000047
 17,0.00023314,0.00021901,-0.00012813,0.00302544,-0.00293493,0.00287725
 ,0.00008168,-0.00007088,0.00012802,-0.00000196,0.00001885,-0.00001791,
 0.00000558,-0.00001552,0.00000712,-0.00000301,0.00000425,0.00000438,0.
 00002149,0.00000409,0.00001271,0.00002095,0.00003489,-0.00003143,0.000
 00085,0.00000714,-0.00001165,-0.00001196,-0.00000127,-0.00000158,0.000
 00113,-0.00000033,0.00000034,0.00000270,-0.00000524,0.00000907,-0.0000
 1172,0.00001127,0.00000368,0.00000560,0.00000248,-0.00001314,0.0000024
 6,0.00000590,-0.00000769,-0.00000742,-0.00006509,-0.00000745,0.0000068
 7,0.00001567,-0.00000898,-0.00008472,-0.00002274,0.00002454,-0.0000486
 5,-0.00024597,-0.00014228,-0.00004491,0.00036445,-0.00005237,-0.000468
 21,0.00050980,0.00004660,0.00248321,-0.00090770,-0.00075608,0.00095260
 ,0.00080695,0.00004786,-0.00840370,-0.00227228,0.00216439,0.00132908,-
 0.01214336,-0.00165645,0.00202483,-0.00426301,-0.00265083,0.00086291,-
 0.00008193,-0.00068078,-0.00005386,0.00016263,0.00021199,0.09450679,0.
 22066889,-0.00007205,-0.00005286,-0.00000812,-0.00001592,0.00001877,-0
 .00001637,0.00001516,-0.00000255,0.00000023,0.00001143,-0.00002578,0.0
 0005473,0.00000289,-0.00000856,0.00000460,-0.00030188,0.00011583,0.000
 08599,0.00015235,0.00020119,0.00001063,-0.00007609,-0.00005613,0.00001
 232,0.00021240,0.00010170,-0.00007741,0.00007729,0.00005422,-0.0000337
 8,0.00000632,-0.00002213,0.00004804,-0.00001220,-0.00004781,-0.0000159
 2,0.00010557,0.00023054,-0.00062471,0.00000351,-0.00000133,0.00001125,
 -0.00001815,-0.00000024,-0.00001610,-0.00024739,-0.00018538,0.00035554
 ,-0.00006228,-0.00000744,0.00011163,-0.00058693,-0.00030905,-0.0009397
 5,-0.00446003,0.00214795,-0.00017555,0.00010985,0.00016442,0.00035775,
 -0.00001813,0.00001439,-0.00000088,0.00000520,-0.00001471,0.00000809,0
 .00000891,-0.00000418,0.00000294,-0.00007638,0.00006760,-0.00004721,-0
 .00002445,0.00003828,-0.00007686,-0.00003838,-0.00000321,0.00001124,0.
 00000182,-0.00004411,0.00001262,-0.00001992,0.00000363,0.00002078,-0.0
 0000285,0.00001648,-0.00002484,0.00000060,0.00000123,0.00004241,0.0000
 0914,0.00000444,-0.00001025,0.00000545,0.00000818,-0.00000606,0.000081
 28,0.00000995,-0.00000111,0.00001234,0.00000822,-0.00000751,0.00000361
 ,-0.00001681,0.00000271,-0.00012961,-0.00040550,-0.00001369,0.00014204
 ,-0.00000842,0.00002318,-0.00022383,0.00078218,-0.00008937,0.00041431,
 -0.00021236,0.00082193,0.00074193,-0.00064951,0.00173689,0.00364886,0.
 00273244,-0.00102426,0.00096712,-0.00089357,-0.01284726,0.00138891,-0.
 00259635,-0.00090764,0.00044928,0.00008367,-0.00014887,0.00002061,0.00
 022692,0.00021623,0.08745125,-0.08044096,0.23012208,0.00000099,-0.0000
 1270,-0.00000203,0.00000288,0.00000053,-0.00000215,0.00000456,0.000001
 87,-0.00001306,0.00000950,-0.00000293,0.00001077,-0.00000206,0.0000014
 3,0.00000035,-0.00004402,0.00000494,0.00004936,0.00002456,0.00008054,0
 .00004470,-0.00000591,0.00000061,0.00000058,-0.00000148,-0.00000547,-0
 .00000880,0.00000066,0.00002279,-0.00001064,-0.00000283,-0.00000094,0.
 00000313,0.00000650,0.00000729,0.00000165,0.00000662,0.00003975,-0.000
 08531,0.00000013,0.00000144,-0.00000166,-0.00000557,-0.00000265,-0.000
 00246,-0.00006241,-0.00002327,0.00007106,-0.00001023,-0.00000975,0.000
 01194,0.00041153,0.00001635,-0.00023348,-0.00197171,0.00068947,0.00038
 738,0.00005186,0.00005842,0.00008358,0.00000610,-0.00001634,0.00000649
 ,-0.00000539,0.00001357,-0.00000575,-0.00000113,0.00000093,-0.00000296
 ,-0.00000791,0.00001174,-0.00000367,0.00000591,0.00001881,-0.00000900,
 0.00000455,-0.00000089,0.00000082,0.00000357,-0.00000159,0.00000925,-0
 .00000269,0.00000074,0.00000040,-0.00000095,-0.00000010,-0.00000225,0.
 00000566,0.00000184,-0.00000551,-0.00000716,-0.00000091,0.00000851,0.0
 0000137,-0.00000007,-0.00000114,0.00002002,-0.00000896,-0.00001496,-0.
 00000708,0.00000040,0.00001042,-0.00001974,-0.00000806,0.00000417,0.00
 004210,-0.00010598,-0.00005730,0.00012573,0.00002637,-0.00007731,-0.00
 007591,0.00010702,0.00002898,-0.00006438,0.00009040,0.00058003,0.00006
 622,-0.00023692,0.00096781,0.00102075,-0.00034833,-0.00007580,-0.00197
 663,0.00254143,-0.00670776,-0.00002464,-0.00037442,-0.00006558,0.00011
 325,0.00017265,0.00008529,0.00007279,0.00022739,0.00011531,-0.06636600
 ,0.02622130,-0.09889159,0.06267148,0.00002354,0.00000419,-0.00000315,0
 .00000675,-0.00000376,0.00000264,-0.00000038,0.00000501,-0.00000631,-0
 .00001247,0.00000321,-0.00000332,-0.00000252,0.00000171,-0.00000059,0.
 00003688,-0.00004093,-0.00002433,-0.00003059,-0.00006870,-0.00002317,0
 .00002091,0.00001479,-0.00000120,-0.00005707,-0.00001926,0.00002887,-0
 .00003045,-0.00002287,0.00000588,-0.00000200,0.00000136,-0.00000891,0.
 00000825,0.00001701,0.00000627,0.00002125,0.00002525,0.00007689,-0.000
 00106,0.00000151,-0.00000427,-0.00000119,-0.00000133,-0.00000015,-0.00
 000616,0.00003237,-0.00009672,0.00001676,0.00000184,-0.00001708,0.0000
 4030,-0.00006618,0.00041376,0.00128486,-0.00009232,-0.00002966,-0.0000
 0643,-0.00004505,-0.00009959,0.00000894,-0.00001462,0.00000360,-0.0000
 0498,0.00001264,-0.00000594,-0.00000368,0.00000241,-0.00000145,0.00000
 025,0.00000130,-0.00000332,0.00000401,-0.00000499,0.00001077,0.0000126
 5,-0.00000016,-0.00000079,0.00000460,0.00000831,0.00000623,0.00000336,
 0.00000001,-0.00000145,-0.00000049,-0.00000461,0.00000258,0.00000725,0
 .00000347,-0.00001446,-0.00000896,-0.00000228,0.00001058,0.,-0.0000026
 3,0.00000120,-0.00000005,0.00000049,-0.00001040,-0.00001184,-0.0000030
 3,0.00001277,0.00000143,-0.00000205,0.00000014,0.00004734,0.00005492,0
 .00001640,-0.00005568,0.00000341,0.00005239,-0.00002305,-0.00017239,0.
 00000980,0.00015943,0.00010065,-0.00046316,0.00001942,0.00011413,-0.00
 040808,-0.00081325,-0.00022848,0.00042673,0.00109254,-0.00137100,0.002
 47697,-0.00013235,0.00039620,0.00010768,-0.00008780,-0.00024696,0.0001
 6706,0.00005499,-0.00023499,-0.00017152,0.01357684,-0.03469611,0.05041
 926,-0.02387198,0.04400981,0.00000186,0.00000891,0.00000570,0.00000112
 ,-0.00000244,0.00000152,0.00000709,-0.00000968,0.00001076,-0.00000250,
 0.00000285,-0.00000620,-0.00000107,-0.00000081,-0.00000166,0.00001202,
 -0.00000229,-0.00000969,-0.00003319,0.00002200,0.00001794,0.00000736,0
 .00000399,0.00000147,-0.00000963,-0.00000419,-0.00000331,0.00000447,0.
 00000170,0.00000304,0.00000025,0.00000266,-0.00000263,0.00000099,0.000
 00025,0.00000175,-0.00011446,-0.00008832,0.00013124,-0.00000055,-0.000
 00174,0.00000193,0.00000579,-0.00000031,0.00000553,0.00004905,-0.00002
 422,-0.00002462,0.00000414,0.00000018,-0.00002314,0.00041246,0.0002516
 8,-0.00008621,-0.00042042,0.00004022,0.00008688,0.00000171,-0.00002437
 ,0.00003768,-0.00000124,0.00001574,-0.00000664,0.00000447,-0.00001131,
 0.00000469,-0.00000075,-0.00000022,0.00000187,0.00003163,-0.00001850,0
 .00002218,0.00000582,-0.00000377,0.00000560,-0.00000085,0.00000107,-0.
 00000507,-0.00001102,0.00000591,-0.00001197,0.00000362,-0.00000159,-0.
 00000525,0.00000193,-0.00000205,0.00000662,-0.00000945,-0.00000035,-0.
 00000031,0.00000621,0.00000112,-0.00000840,-0.00000072,-0.00000074,0.0
 0000052,-0.00003015,-0.00000537,0.00000954,0.00000928,0.00000271,-0.00
 001301,-0.00000193,0.00000258,0.00000191,-0.00003576,0.00002927,-0.000
 01324,-0.00003082,-0.00000040,-0.00001007,-0.00002990,0.00001180,-0.00
 000682,0.00013875,-0.00007380,-0.00011026,0.00013303,0.00004964,-0.000
 65434,-0.00023509,-0.00031466,0.00025678,0.00061779,-0.00120380,0.0030
 9278,0.00003026,0.00008285,0.00002890,-0.00002392,-0.00002599,0.000016
 55,0.00001242,-0.00013681,-0.00006171,-0.08889963,0.07351228,-0.197316
 49,0.08982161,-0.07106813,0.19782796,0.00000745,-0.00000073,-0.0000128
 6,0.00000041,-0.00000037,-0.00000373,-0.00001426,0.00001986,-0.0000167
 0,-0.00000096,0.00000307,0.00000037,0.00000343,0.00000273,0.00000331,0
 .00004896,-0.00005561,0.00001105,-0.00003317,-0.00005203,0.00000171,0.
 00000874,0.00000672,-0.00000306,-0.00003202,0.00000425,0.00003104,-0.0
 0005003,-0.00002743,-0.00000744,0.00000125,-0.00000615,-0.00000113,0.0
 0000075,0.00000491,-0.00000612,0.00020696,0.00016071,-0.00010309,-0.00
 000033,0.00000373,-0.00000631,-0.00000624,0.00000312,-0.00000711,0.000
 06523,-0.00005674,-0.00003122,0.00001767,-0.00000713,0.00000968,-0.000
 29473,-0.00015742,0.00016532,0.00124866,0.00019743,-0.00029630,-0.0000
 5563,-0.00001030,-0.00006735,0.00000444,-0.00003494,0.00001171,-0.0000
 0986,0.00002554,-0.00001122,-0.00000155,0.00000292,-0.00000446,-0.0000
 6503,0.00002825,-0.00003886,-0.00001778,-0.00003427,0.00002062,0.00001
 114,-0.00000021,0.00000968,0.00001786,-0.00000492,0.00001893,0.0000030
 3,-0.00000033,0.00000480,-0.00000426,0.00000149,-0.00001165,0.00002104
 ,-0.00000210,-0.00000526,-0.00001350,-0.00000358,0.00001908,-0.0000012
 0,-0.00000084,-0.00000125,0.00003504,0.00002006,0.00000029,-0.00002304
 ,-0.00000988,0.00002555,0.00001345,-0.00001526,-0.00000454,0.00006010,
 0.00022781,0.00006408,-0.00020454,0.00004926,0.00006623,0.00009736,-0.
 00019408,-0.00000660,0.00076327,-0.00021313,-0.00039904,0.00009715,0.0
 0079835,0.00059861,-0.00385110,0.00055891,0.00113294,-0.00186413,-0.00
 741310,0.00010043,-0.00000866,-0.00046053,-0.00023659,0.00059393,0.000
 90189,0.00033870,0.00010243,0.00007043,0.00004936,-0.11125828,-0.12192
 441,0.00922861,0.00598657,0.00871188,-0.00143210,0.10839401,-0.0000107
 3,-0.00000197,0.00000582,-0.00000198,0.00000186,0.00000025,0.00000664,
 -0.00000267,-0.00000175,0.00000101,-0.00000248,-0.00000114,0.00000086,
 0.00000077,-0.00000060,-0.00001996,0.00000630,0.00002706,0.00001151,0.
 00001432,0.00000090,0.00000037,-0.00000225,-0.00000322,0.00002835,0.00
 000314,-0.00000336,0.00000187,0.00001351,-0.00000543,0.00000006,-0.000
 00033,0.00000301,-0.00000345,-0.00000228,-0.00000663,-0.00003913,-0.00
 001667,-0.00000073,0.00000004,0.00000017,0.00000035,-0.00000235,0.0000
 0025,-0.00000173,0.00001928,-0.00002361,0.00003807,0.00001042,-0.00000
 156,0.00000653,0.00005560,0.00002856,-0.00001002,-0.00028771,0.0001822
 6,-0.00036923,0.00002228,0.00000139,0.00001188,0.00000037,-0.00000521,
 0.00000408,-0.00000170,0.00000425,-0.00000176,0.00000049,-0.00000085,-
 0.00000115,-0.00002269,0.00000701,-0.00001131,-0.00000235,0.00000024,-
 0.00000502,-0.00000153,-0.00000111,0.00000108,0.00000266,-0.00000650,0
 .00000673,-0.00000012,0.00000209,0.00000258,-0.00000091,0.00000104,-0.
 00000327,0.00000502,-0.00000051,0.00000049,-0.00000172,-0.00000027,0.0
 0000274,0.00000027,0.00000096,-0.00000115,0.00001389,0.00000387,-0.000
 00523,-0.00000284,-0.00000097,0.00000412,0.00000119,-0.00000381,0.0000
 0161,-0.00004413,0.00000151,0.00001421,-0.00003095,-0.00004997,0.00000
 272,-0.00006059,0.00007309,-0.00003134,-0.00000737,-0.00015015,0.00016
 675,0.00032809,-0.00020662,-0.00049692,-0.00007794,0.00112963,-0.00002
 754,-0.00067268,0.00213104,0.00021189,0.00105055,-0.00021065,-0.000395
 37,-0.00015504,-0.00025224,-0.00024449,-0.00012955,0.00000657,0.000032
 29,-0.11353783,-0.16474175,0.02855743,-0.00532778,-0.00747133,-0.00102
 359,0.11888217,0.16954191,-0.00001052,-0.00000365,0.00000086,-0.000002
 58,0.00000140,-0.00000190,-0.00000049,0.00000933,-0.00001524,0.0000049
 0,-0.00000354,0.00000166,0.00000285,0.00000156,0.00000097,-0.00000346,
 -0.00002699,0.00004748,-0.00001268,-0.00001066,-0.00001023,0.00000263,
 0.00000475,-0.00000693,0.00001613,0.00001009,0.00000083,-0.00000524,0.
 00000987,-0.00001578,-0.00000023,-0.00000257,0.00000155,-0.00000309,-0
 .00000131,-0.00000667,0.00005051,0.00004653,-0.00014221,0.00000063,0.0
 0000191,-0.00000193,-0.00000434,0.00000025,-0.00000392,-0.00002390,0.0
 0007410,0.00000342,-0.00000241,-0.00000586,0.00002495,-0.00002667,-0.0
 0006255,-0.00005252,-0.00023417,0.00003774,-0.00007063,0.00000018,0.00
 003859,0.00002574,-0.00000049,-0.00001696,0.00000895,-0.00000474,0.000
 01220,-0.00000505,0.00000183,-0.00000052,-0.00000325,-0.00002526,0.000
 01073,-0.00001866,-0.00000172,0.00000999,-0.00000542,0.00000098,-0.000
 00172,0.00000378,0.00000912,-0.00000428,0.00001082,-0.00000243,0.00000
 106,0.00000191,-0.00000192,0.00000224,-0.00000665,0.00000818,-0.000001
 38,0.00000210,-0.00000442,-0.00000084,0.00000685,0.00000021,-0.0000011
 2,-0.00000020,0.00002776,0.00001126,-0.00000599,-0.00000391,-0.0000027
 9,0.00000701,0.00000304,-0.00000389,0.00000033,-0.00001571,-0.00004525
 ,-0.00002732,0.00008750,-0.00006217,-0.00004863,0.00004144,0.00007228,
 -0.00000978,-0.00041914,0.00004314,0.00067404,0.00008074,-0.00011606,-
 0.00017802,0.00091390,0.00067974,-0.00010181,0.00062999,0.00086715,-0.
 00082169,0.00024603,0.00021081,0.00006213,-0.00022241,-0.00070660,0.00
 000901,0.00003517,-0.00008130,-0.00012464,-0.00591026,0.00724723,-0.01
 964379,0.01397658,0.01820870,-0.00320031,-0.00919811,-0.02645061,0.023
 63478\\-0.00000068,0.00000324,0.00000100,-0.00000060,-0.00000061,0.,0.
 00000164,-0.00000391,0.,-0.00000143,0.00000302,0.00000405,-0.00000174,
 0.00000122,0.00000086,-0.00001130,0.00001885,-0.00000640,0.00000151,-0
 .00000119,-0.00000616,0.00000269,0.00000273,0.00000434,0.00001870,0.00
 000106,-0.00001177,0.00000211,0.00000268,0.00000063,0.00000160,0.00000
 141,0.00000050,-0.00000158,-0.00000780,0.00001011,-0.00003575,-0.00002
 049,0.00000334,0.00000159,0.00000249,-0.00000209,0.00000137,0.00000231
 ,-0.00000512,0.00000882,0.00000849,0.00000772,0.00000988,-0.00000461,-
 0.00000028,-0.00001285,-0.00001155,0.00001804,0.00001628,-0.00000804,-
 0.00000091,0.00000788,0.00000454,0.00000174,-0.00000109,0.00000236,0.0
 0000032,0.00000076,0.00000077,0.00000065,0.00000164,0.00000074,0.00000
 106,-0.00001474,0.00000711,-0.00001717,0.00000193,-0.00000199,-0.00000
 119,-0.00000177,-0.00000196,0.00000082,-0.00000288,-0.00000977,0.00000
 519,0.00000264,0.00000066,0.00000737,-0.00000118,0.00000179,-0.0000019
 1,0.00000037,0.00000158,0.00000113,-0.00000015,-0.00000064,-0.00000069
 ,-0.00000049,0.00000114,-0.00000278,-0.00000333,-0.00000199,0.00000274
 ,-0.00000008,-0.00000201,-0.00000162,-0.00000167,0.00000180,-0.0000104
 1,0.00001748,0.00000524,0.00001782,-0.00000240,-0.00000134,-0.00001131
 ,-0.00000774,-0.00000052,0.00000147,0.00001512,-0.00000219,0.00001377,
 0.00000640,-0.00000747,-0.00000608,-0.00000024,0.00000529,-0.00000062,
 -0.00003006,-0.00000319,-0.00002303,0.00001448,-0.00000199,0.00000083,
 -0.00000017,0.00000439,0.00000601,0.00000132,0.00000478,-0.00000143,0.
 00000873,0.00000489,-0.00000227,-0.00000885,-0.00000030,0.00000380,-0.
 00000215,-0.00000104,-0.00000205\\\@
 The archive entry for this job was punched.


 Change starts when someone sees the next step.
                            -- William Drayton
 Job cpu time:       1 days 18 hours 48 minutes 34.9 seconds.
 Elapsed time:       0 days  0 hours 53 minutes 39.7 seconds.
 File lengths (MBytes):  RWF=   5542 Int=      0 D2E=      0 Chk=     72 Scr=      2
 Normal termination of Gaussian 16 at Wed Dec 21 16:00:04 2022.
