 Entering Gaussian System, Link 0=g16
 Initial command:
 /home/chesagar/softwares/G16_AVX2//g16/l1.exe "/home/chesagar/scratch/Gau-136833.inp" -scrdir="/home/chesagar/scratch/"
 Entering Link 1 = /home/chesagar/softwares/G16_AVX2//g16/l1.exe PID=    136834.
  
 Copyright (c) 1988-2019, Gaussian, Inc.  All Rights Reserved.
  
 This is part of the Gaussian(R) 16 program.  It is based on
 the Gaussian(R) 09 system (copyright 2009, Gaussian, Inc.),
 the Gaussian(R) 03 system (copyright 2003, Gaussian, Inc.),
 the Gaussian(R) 98 system (copyright 1998, Gaussian, Inc.),
 the Gaussian(R) 94 system (copyright 1995, Gaussian, Inc.),
 the Gaussian 92(TM) system (copyright 1992, Gaussian, Inc.),
 the Gaussian 90(TM) system (copyright 1990, Gaussian, Inc.),
 the Gaussian 88(TM) system (copyright 1988, Gaussian, Inc.),
 the Gaussian 86(TM) system (copyright 1986, Carnegie Mellon
 University), and the Gaussian 82(TM) system (copyright 1983,
 Carnegie Mellon University). Gaussian is a federally registered
 trademark of Gaussian, Inc.
  
 This software contains proprietary and confidential information,
 including trade secrets, belonging to Gaussian, Inc.
  
 This software is provided under written license and may be
 used, copied, transmitted, or stored only in accord with that
 written license.
  
 The following legend is applicable only to US Government
 contracts under FAR:
  
                    RESTRICTED RIGHTS LEGEND
  
 Use, reproduction and disclosure by the US Government is
 subject to restrictions as set forth in subparagraphs (a)
 and (c) of the Commercial Computer Software - Restricted
 Rights clause in FAR 52.227-19.
  
 Gaussian, Inc.
 340 Quinnipiac St., Bldg. 40, Wallingford CT 06492
  
  
 ---------------------------------------------------------------
 Warning -- This program may not be used in any manner that
 competes with the business of Gaussian, Inc. or will provide
 assistance to any competitor of Gaussian, Inc.  The licensee
 of this program is prohibited from giving any competitor of
 Gaussian, Inc. access to this program.  By using this program,
 the user acknowledges that Gaussian, Inc. is engaged in the
 business of creating and licensing software in the field of
 computational chemistry and represents and warrants to the
 licensee that it is not a competitor of Gaussian, Inc. and that
 it will not use this program in any manner prohibited above.
 ---------------------------------------------------------------
  

 Cite this work as:
 Gaussian 16, Revision C.01,
 M. J. Frisch, G. W. Trucks, H. B. Schlegel, G. E. Scuseria, 
 M. A. Robb, J. R. Cheeseman, G. Scalmani, V. Barone, 
 G. A. Petersson, H. Nakatsuji, X. Li, M. Caricato, A. V. Marenich, 
 J. Bloino, B. G. Janesko, R. Gomperts, B. Mennucci, H. P. Hratchian, 
 J. V. Ortiz, A. F. Izmaylov, J. L. Sonnenberg, D. Williams-Young, 
 F. Ding, F. Lipparini, F. Egidi, J. Goings, B. Peng, A. Petrone, 
 T. Henderson, D. Ranasinghe, V. G. Zakrzewski, J. Gao, N. Rega, 
 G. Zheng, W. Liang, M. Hada, M. Ehara, K. Toyota, R. Fukuda, 
 J. Hasegawa, M. Ishida, T. Nakajima, Y. Honda, O. Kitao, H. Nakai, 
 T. Vreven, K. Throssell, J. A. Montgomery, Jr., J. E. Peralta, 
 F. Ogliaro, M. J. Bearpark, J. J. Heyd, E. N. Brothers, K. N. Kudin, 
 V. N. Staroverov, T. A. Keith, R. Kobayashi, J. Normand, 
 K. Raghavachari, A. P. Rendell, J. C. Burant, S. S. Iyengar, 
 J. Tomasi, M. Cossi, J. M. Millam, M. Klene, C. Adamo, R. Cammi, 
 J. W. Ochterski, R. L. Martin, K. Morokuma, O. Farkas, 
 J. B. Foresman, and D. J. Fox, Gaussian, Inc., Wallingford CT, 2019.
 
 ******************************************
 Gaussian 16:  ES64L-G16RevC.01  3-Jul-2019
                22-Dec-2022 
 ******************************************
 %nprocshared=46
 Will use up to   46 processors via shared memory.
 %mem=100GB
 ---------------------------------------
 # opt freq b3lyp/gen nosymm pseudo=read
 ---------------------------------------
 1/18=20,19=15,26=3,38=1/1,3;
 2/9=110,12=2,15=1,17=6,18=5,40=1/2;
 3/5=7,11=2,16=1,17=8,25=1,30=1,71=1,74=-5/1,2,3;
 4//1;
 5/5=2,38=5/2;
 6/7=2,8=2,9=2,10=2,28=1/1;
 7/30=1/1,2,3,16;
 1/18=20,19=15,26=3/3(2);
 2/9=110,15=1/2;
 99//99;
 2/9=110,15=1/2;
 3/5=7,6=1,11=2,16=1,17=8,25=1,30=1,71=1,74=-5,82=7/1,2,3;
 4/5=5,16=3,69=1/1;
 5/5=2,38=5/2;
 7/30=1/1,2,3,16;
 1/18=20,19=15,26=3/3(-5);
 2/9=110,15=1/2;
 6/7=2,8=2,9=2,10=2,19=2,28=1/1;
 99/9=1/99;
 -------------------
 Title Card Required
 -------------------
 Symbolic Z-matrix:
 Charge =  0 Multiplicity = 1
 42                    0.58647   1.42111   12.33675 
 16                    1.57115   3.55646   12.5947 
 16                   -1.55855   1.90644   13.18417 
 16                   -0.2977    0.95554   10.18482 
 16                    2.41191  -0.16544   11.71351 
 42                   -1.96099   2.59046   10.90574 
 16                   -2.80335   2.13979   8.67852 
 16                   -0.9872    4.59909   10.70144 
 42                    0.9934    3.06603   10.25818 
 16                    0.30703   3.33396   7.86856 
 16                    2.86279   1.86026   9.28513 
 42                    3.28081   2.26304   11.62674 
 42                   -1.89752   4.4188    8.31097 
 16                    4.46673   1.91945   13.84469 
 16                    4.9372    3.91649   11.39068 
 16                   -3.72186   5.82511   9.25162 
 16                   -0.5597    6.53739   8.23826 
 42                   -4.37175   3.61495   9.63153 
 16                   -6.62825   3.2244    9.47439 
 16                   -4.08605   3.3718    11.83589 
 42                    3.0198    0.22469   13.90773 
 16                    3.82444  -1.48141   14.87861 
 16                    1.10795   0.8732    14.82299 
 42                    1.54437   5.47731   7.29187 
 16                    0.75944   5.0898    5.01379 
 16                    1.9289    5.44586   9.92229 
 42                    3.64456   4.10943   9.46655 
 16                    3.4733    3.97091   6.97117 
 16                    5.31725   6.07535   9.09388 
 42                    4.32944   6.14231   7.11943 
 16                    5.65075   6.50039   5.50726 
 16                    2.55399   7.75551   7.26521 
 42                    1.53163   7.30582   5.13589 
 16                    2.80921   7.69708   3.4906 
 16                   -0.38931   8.38656   5.11098 
 42                   -1.21958   6.1063    6.10996 
 16                   -2.11218   3.95665   5.9569 
 16                   -3.27379   7.34125   5.99746 
 42                   -3.94732   5.31982   6.88247 
 16                   -5.11527   3.42761   5.88379 
 16                   -6.19724   6.43459   7.30467 
 42                   -6.64698   4.25334   7.32795 
 16                   -8.15598   2.51003   6.2109 
 1                    -7.42116   2.08525   5.16 
 16                   -9.05696   5.01195   7.72035 
 1                    -8.92733   6.35708   7.70563 
 

 GradGradGradGradGradGradGradGradGradGradGradGradGradGradGradGradGradGrad
 Berny optimization.
 Initialization pass.
                           ----------------------------
                           !    Initial Parameters    !
                           ! (Angstroms and Degrees)  !
 --------------------------                            --------------------------
 ! Name  Definition              Value          Derivative Info.                !
 --------------------------------------------------------------------------------
 ! R1    R(1,2)                  2.3656         estimate D2E/DX2                !
 ! R2    R(1,3)                  2.3569         estimate D2E/DX2                !
 ! R3    R(1,4)                  2.3726         estimate D2E/DX2                !
 ! R4    R(1,5)                  2.4976         estimate D2E/DX2                !
 ! R5    R(1,9)                  2.6818         estimate D2E/DX2                !
 ! R6    R(1,12)                 2.9107         estimate D2E/DX2                !
 ! R7    R(1,23)                 2.5988         estimate D2E/DX2                !
 ! R8    R(2,9)                  2.4563         estimate D2E/DX2                !
 ! R9    R(2,12)                 2.3522         estimate D2E/DX2                !
 ! R10   R(3,6)                  2.4127         estimate D2E/DX2                !
 ! R11   R(4,6)                  2.4411         estimate D2E/DX2                !
 ! R12   R(4,9)                  2.4752         estimate D2E/DX2                !
 ! R13   R(5,12)                 2.5807         estimate D2E/DX2                !
 ! R14   R(5,21)                 2.3101         estimate D2E/DX2                !
 ! R15   R(6,7)                  2.4235         estimate D2E/DX2                !
 ! R16   R(6,8)                  2.2416         estimate D2E/DX2                !
 ! R17   R(6,9)                  3.0617         estimate D2E/DX2                !
 ! R18   R(6,18)                 2.9129         estimate D2E/DX2                !
 ! R19   R(6,20)                 2.4478         estimate D2E/DX2                !
 ! R20   R(7,13)                 2.4798         estimate D2E/DX2                !
 ! R21   R(7,18)                 2.3546         estimate D2E/DX2                !
 ! R22   R(8,9)                  2.5435         estimate D2E/DX2                !
 ! R23   R(8,13)                 2.5643         estimate D2E/DX2                !
 ! R24   R(9,10)                 2.5006         estimate D2E/DX2                !
 ! R25   R(9,11)                 2.428          estimate D2E/DX2                !
 ! R26   R(9,12)                 2.7839         estimate D2E/DX2                !
 ! R27   R(9,26)                 2.5791         estimate D2E/DX2                !
 ! R28   R(9,27)                 2.957          estimate D2E/DX2                !
 ! R29   R(10,13)                2.4965         estimate D2E/DX2                !
 ! R30   R(10,24)                2.5412         estimate D2E/DX2                !
 ! R31   R(11,12)                2.4125         estimate D2E/DX2                !
 ! R32   R(11,27)                2.3881         estimate D2E/DX2                !
 ! R33   R(12,14)                2.5385         estimate D2E/DX2                !
 ! R34   R(12,15)                2.3523         estimate D2E/DX2                !
 ! R35   R(12,21)                3.0702         estimate D2E/DX2                !
 ! R36   R(12,27)                2.8649         estimate D2E/DX2                !
 ! R37   R(13,16)                2.4881         estimate D2E/DX2                !
 ! R38   R(13,17)                2.5067         estimate D2E/DX2                !
 ! R39   R(13,18)                2.9175         estimate D2E/DX2                !
 ! R40   R(13,36)                2.8551         estimate D2E/DX2                !
 ! R41   R(13,37)                2.4086         estimate D2E/DX2                !
 ! R42   R(13,39)                2.656          estimate D2E/DX2                !
 ! R43   R(14,21)                2.2293         estimate D2E/DX2                !
 ! R44   R(15,27)                2.326          estimate D2E/DX2                !
 ! R45   R(16,18)                2.3349         estimate D2E/DX2                !
 ! R46   R(16,39)                2.4329         estimate D2E/DX2                !
 ! R47   R(17,24)                2.539          estimate D2E/DX2                !
 ! R48   R(17,36)                2.2696         estimate D2E/DX2                !
 ! R49   R(18,19)                2.2954         estimate D2E/DX2                !
 ! R50   R(18,20)                2.2361         estimate D2E/DX2                !
 ! R51   R(19,42)                2.3804         estimate D2E/DX2                !
 ! R52   R(21,22)                2.1215         estimate D2E/DX2                !
 ! R53   R(21,23)                2.2166         estimate D2E/DX2                !
 ! R54   R(24,25)                2.4405         estimate D2E/DX2                !
 ! R55   R(24,26)                2.6586         estimate D2E/DX2                !
 ! R56   R(24,28)                2.4684         estimate D2E/DX2                !
 ! R57   R(24,30)                2.8686         estimate D2E/DX2                !
 ! R58   R(24,32)                2.492          estimate D2E/DX2                !
 ! R59   R(24,33)                2.827          estimate D2E/DX2                !
 ! R60   R(24,36)                3.0711         estimate D2E/DX2                !
 ! R61   R(25,33)                2.3499         estimate D2E/DX2                !
 ! R62   R(25,36)                2.4802         estimate D2E/DX2                !
 ! R63   R(26,27)                2.222          estimate D2E/DX2                !
 ! R64   R(27,28)                2.5051         estimate D2E/DX2                !
 ! R65   R(27,29)                2.608          estimate D2E/DX2                !
 ! R66   R(28,30)                2.3388         estimate D2E/DX2                !
 ! R67   R(29,30)                2.2088         estimate D2E/DX2                !
 ! R68   R(30,31)                2.115          estimate D2E/DX2                !
 ! R69   R(30,32)                2.4033         estimate D2E/DX2                !
 ! R70   R(32,33)                2.4045         estimate D2E/DX2                !
 ! R71   R(33,34)                2.1195         estimate D2E/DX2                !
 ! R72   R(33,35)                2.2042         estimate D2E/DX2                !
 ! R73   R(35,36)                2.6243         estimate D2E/DX2                !
 ! R74   R(36,37)                2.3326         estimate D2E/DX2                !
 ! R75   R(36,38)                2.3995         estimate D2E/DX2                !
 ! R76   R(36,39)                2.9421         estimate D2E/DX2                !
 ! R77   R(37,39)                2.4663         estimate D2E/DX2                !
 ! R78   R(38,39)                2.3072         estimate D2E/DX2                !
 ! R79   R(39,40)                2.4376         estimate D2E/DX2                !
 ! R80   R(39,41)                2.5462         estimate D2E/DX2                !
 ! R81   R(39,42)                2.9367         estimate D2E/DX2                !
 ! R82   R(40,42)                2.2613         estimate D2E/DX2                !
 ! R83   R(41,42)                2.2273         estimate D2E/DX2                !
 ! R84   R(42,43)                2.562          estimate D2E/DX2                !
 ! R85   R(42,45)                2.5568         estimate D2E/DX2                !
 ! R86   R(43,44)                1.3508         estimate D2E/DX2                !
 ! R87   R(45,46)                1.3514         estimate D2E/DX2                !
 ! A1    A(2,1,3)               98.8447         estimate D2E/DX2                !
 ! A2    A(2,1,4)              115.5409         estimate D2E/DX2                !
 ! A3    A(2,1,5)              107.2411         estimate D2E/DX2                !
 ! A4    A(2,1,23)              90.1414         estimate D2E/DX2                !
 ! A5    A(3,1,4)               91.5677         estimate D2E/DX2                !
 ! A6    A(3,1,5)              152.3413         estimate D2E/DX2                !
 ! A7    A(3,1,9)              106.8868         estimate D2E/DX2                !
 ! A8    A(3,1,12)             150.5283         estimate D2E/DX2                !
 ! A9    A(3,1,23)              83.2265         estimate D2E/DX2                !
 ! A10   A(4,1,5)               85.4914         estimate D2E/DX2                !
 ! A11   A(4,1,12)             100.3972         estimate D2E/DX2                !
 ! A12   A(4,1,23)             154.306          estimate D2E/DX2                !
 ! A13   A(5,1,9)               94.8945         estimate D2E/DX2                !
 ! A14   A(5,1,23)              87.6008         estimate D2E/DX2                !
 ! A15   A(9,1,23)             147.1816         estimate D2E/DX2                !
 ! A16   A(12,1,23)             96.2349         estimate D2E/DX2                !
 ! A17   A(1,3,6)               82.5673         estimate D2E/DX2                !
 ! A18   A(1,4,6)               81.6417         estimate D2E/DX2                !
 ! A19   A(1,5,21)              81.2586         estimate D2E/DX2                !
 ! A20   A(3,6,4)               88.5883         estimate D2E/DX2                !
 ! A21   A(3,6,7)              150.825          estimate D2E/DX2                !
 ! A22   A(3,6,8)              105.5252         estimate D2E/DX2                !
 ! A23   A(3,6,9)               94.7507         estimate D2E/DX2                !
 ! A24   A(3,6,18)             130.6059         estimate D2E/DX2                !
 ! A25   A(3,6,20)              82.9033         estimate D2E/DX2                !
 ! A26   A(4,6,7)               80.8438         estimate D2E/DX2                !
 ! A27   A(4,6,8)              106.0948         estimate D2E/DX2                !
 ! A28   A(4,6,18)             132.0874         estimate D2E/DX2                !
 ! A29   A(4,6,20)             156.5678         estimate D2E/DX2                !
 ! A30   A(7,6,8)              103.5252         estimate D2E/DX2                !
 ! A31   A(7,6,9)               99.7826         estimate D2E/DX2                !
 ! A32   A(7,6,20)              96.1324         estimate D2E/DX2                !
 ! A33   A(8,6,18)              90.2582         estimate D2E/DX2                !
 ! A34   A(8,6,20)              97.224          estimate D2E/DX2                !
 ! A35   A(9,6,18)             130.6519         estimate D2E/DX2                !
 ! A36   A(9,6,20)             150.2881         estimate D2E/DX2                !
 ! A37   A(6,7,13)              80.6971         estimate D2E/DX2                !
 ! A38   A(6,8,13)              82.4002         estimate D2E/DX2                !
 ! A39   A(9,8,13)              94.106          estimate D2E/DX2                !
 ! A40   A(1,9,6)               66.0692         estimate D2E/DX2                !
 ! A41   A(1,9,8)               96.6883         estimate D2E/DX2                !
 ! A42   A(1,9,10)             139.8835         estimate D2E/DX2                !
 ! A43   A(1,9,11)              97.0562         estimate D2E/DX2                !
 ! A44   A(1,9,26)             136.2181         estimate D2E/DX2                !
 ! A45   A(1,9,27)             124.0541         estimate D2E/DX2                !
 ! A46   A(2,9,4)              108.7309         estimate D2E/DX2                !
 ! A47   A(2,9,6)               93.2556         estimate D2E/DX2                !
 ! A48   A(2,9,8)               84.0907         estimate D2E/DX2                !
 ! A49   A(2,9,10)             162.2051         estimate D2E/DX2                !
 ! A50   A(2,9,11)             107.4137         estimate D2E/DX2                !
 ! A51   A(2,9,26)              81.6244         estimate D2E/DX2                !
 ! A52   A(2,9,27)              88.4714         estimate D2E/DX2                !
 ! A53   A(4,9,8)               96.4831         estimate D2E/DX2                !
 ! A54   A(4,9,10)              85.4032         estimate D2E/DX2                !
 ! A55   A(4,9,11)              88.0683         estimate D2E/DX2                !
 ! A56   A(4,9,12)             101.3745         estimate D2E/DX2                !
 ! A57   A(4,9,27)             139.5169         estimate D2E/DX2                !
 ! A58   A(6,9,10)              87.3575         estimate D2E/DX2                !
 ! A59   A(6,9,11)             138.6391         estimate D2E/DX2                !
 ! A60   A(6,9,12)             130.0972         estimate D2E/DX2                !
 ! A61   A(6,9,26)             121.3921         estimate D2E/DX2                !
 ! A62   A(8,9,10)              83.5821         estimate D2E/DX2                !
 ! A63   A(8,9,12)             136.7189         estimate D2E/DX2                !
 ! A64   A(8,9,26)              75.4621         estimate D2E/DX2                !
 ! A65   A(8,9,27)             122.1487         estimate D2E/DX2                !
 ! A66   A(10,9,11)             83.1984         estimate D2E/DX2                !
 ! A67   A(10,9,12)            136.5697         estimate D2E/DX2                !
 ! A68   A(10,9,26)             82.8907         estimate D2E/DX2                !
 ! A69   A(10,9,27)             87.275          estimate D2E/DX2                !
 ! A70   A(11,9,26)             97.2834         estimate D2E/DX2                !
 ! A71   A(12,9,26)             91.8424         estimate D2E/DX2                !
 ! A72   A(9,10,13)             96.8686         estimate D2E/DX2                !
 ! A73   A(9,10,24)             99.9961         estimate D2E/DX2                !
 ! A74   A(13,10,24)            95.9506         estimate D2E/DX2                !
 ! A75   A(1,12,11)             91.6091         estimate D2E/DX2                !
 ! A76   A(1,12,14)            100.3796         estimate D2E/DX2                !
 ! A77   A(1,12,15)            151.5947         estimate D2E/DX2                !
 ! A78   A(1,12,21)             63.1305         estimate D2E/DX2                !
 ! A79   A(1,12,27)            119.2003         estimate D2E/DX2                !
 ! A80   A(2,12,5)             105.0041         estimate D2E/DX2                !
 ! A81   A(2,12,11)            111.4254         estimate D2E/DX2                !
 ! A82   A(2,12,14)             93.1206         estimate D2E/DX2                !
 ! A83   A(2,12,15)             99.5896         estimate D2E/DX2                !
 ! A84   A(2,12,21)             89.8595         estimate D2E/DX2                !
 ! A85   A(2,12,27)             92.7617         estimate D2E/DX2                !
 ! A86   A(5,12,9)              90.6482         estimate D2E/DX2                !
 ! A87   A(5,12,11)             79.4665         estimate D2E/DX2                !
 ! A88   A(5,12,14)             90.0314         estimate D2E/DX2                !
 ! A89   A(5,12,15)            154.4103         estimate D2E/DX2                !
 ! A90   A(5,12,27)            132.4203         estimate D2E/DX2                !
 ! A91   A(9,12,14)            148.478          estimate D2E/DX2                !
 ! A92   A(9,12,15)            109.0564         estimate D2E/DX2                !
 ! A93   A(9,12,21)            119.1362         estimate D2E/DX2                !
 ! A94   A(11,12,14)           155.0152         estimate D2E/DX2                !
 ! A95   A(11,12,15)            98.1614         estimate D2E/DX2                !
 ! A96   A(11,12,21)           126.5519         estimate D2E/DX2                !
 ! A97   A(14,12,15)            81.5962         estimate D2E/DX2                !
 ! A98   A(14,12,27)           133.3712         estimate D2E/DX2                !
 ! A99   A(15,12,21)           126.9488         estimate D2E/DX2                !
 ! A100  A(7,13,8)              93.2169         estimate D2E/DX2                !
 ! A101  A(7,13,10)             87.1035         estimate D2E/DX2                !
 ! A102  A(7,13,16)            101.2784         estimate D2E/DX2                !
 ! A103  A(7,13,36)            138.0885         estimate D2E/DX2                !
 ! A104  A(7,13,37)             86.3287         estimate D2E/DX2                !
 ! A105  A(7,13,39)             96.2911         estimate D2E/DX2                !
 ! A106  A(8,13,10)             83.2388         estimate D2E/DX2                !
 ! A107  A(8,13,16)             82.422          estimate D2E/DX2                !
 ! A108  A(8,13,17)             77.1825         estimate D2E/DX2                !
 ! A109  A(8,13,18)             84.1732         estimate D2E/DX2                !
 ! A110  A(8,13,36)            126.356          estimate D2E/DX2                !
 ! A111  A(8,13,37)            162.9885         estimate D2E/DX2                !
 ! A112  A(8,13,39)            138.722          estimate D2E/DX2                !
 ! A113  A(10,13,16)           163.754          estimate D2E/DX2                !
 ! A114  A(10,13,17)            83.7332         estimate D2E/DX2                !
 ! A115  A(10,13,18)           135.1828         estimate D2E/DX2                !
 ! A116  A(10,13,36)            84.8677         estimate D2E/DX2                !
 ! A117  A(10,13,37)            79.7538         estimate D2E/DX2                !
 ! A118  A(10,13,39)           137.1904         estimate D2E/DX2                !
 ! A119  A(16,13,17)            85.6749         estimate D2E/DX2                !
 ! A120  A(16,13,36)            97.5552         estimate D2E/DX2                !
 ! A121  A(16,13,37)           114.3685         estimate D2E/DX2                !
 ! A122  A(17,13,18)           134.3155         estimate D2E/DX2                !
 ! A123  A(17,13,37)           100.4506         estimate D2E/DX2                !
 ! A124  A(17,13,39)            96.2908         estimate D2E/DX2                !
 ! A125  A(18,13,36)           135.4921         estimate D2E/DX2                !
 ! A126  A(18,13,37)           108.2967         estimate D2E/DX2                !
 ! A127  A(18,13,39)            71.4826         estimate D2E/DX2                !
 ! A128  A(18,16,39)            86.3339         estimate D2E/DX2                !
 ! A129  A(13,17,24)            95.7512         estimate D2E/DX2                !
 ! A130  A(6,18,13)             65.9857         estimate D2E/DX2                !
 ! A131  A(6,18,16)            100.0053         estimate D2E/DX2                !
 ! A132  A(6,18,19)            141.5993         estimate D2E/DX2                !
 ! A133  A(7,18,16)            109.9852         estimate D2E/DX2                !
 ! A134  A(7,18,19)            121.3657         estimate D2E/DX2                !
 ! A135  A(7,18,20)            104.2276         estimate D2E/DX2                !
 ! A136  A(13,18,19)           148.1648         estimate D2E/DX2                !
 ! A137  A(13,18,20)           111.5813         estimate D2E/DX2                !
 ! A138  A(16,18,19)           115.0583         estimate D2E/DX2                !
 ! A139  A(16,18,20)           103.1661         estimate D2E/DX2                !
 ! A140  A(19,18,20)           100.0548         estimate D2E/DX2                !
 ! A141  A(18,19,42)            89.7664         estimate D2E/DX2                !
 ! A142  A(5,21,14)            105.8026         estimate D2E/DX2                !
 ! A143  A(5,21,22)            113.4957         estimate D2E/DX2                !
 ! A144  A(5,21,23)            102.3947         estimate D2E/DX2                !
 ! A145  A(12,21,22)           147.3172         estimate D2E/DX2                !
 ! A146  A(12,21,23)           100.7111         estimate D2E/DX2                !
 ! A147  A(14,21,22)           112.2177         estimate D2E/DX2                !
 ! A148  A(14,21,23)           110.4308         estimate D2E/DX2                !
 ! A149  A(22,21,23)           111.9285         estimate D2E/DX2                !
 ! A150  A(1,23,21)             80.7775         estimate D2E/DX2                !
 ! A151  A(10,24,17)            82.1872         estimate D2E/DX2                !
 ! A152  A(10,24,25)            85.4864         estimate D2E/DX2                !
 ! A153  A(10,24,26)            80.556          estimate D2E/DX2                !
 ! A154  A(10,24,28)            83.9874         estimate D2E/DX2                !
 ! A155  A(10,24,30)           132.9943         estimate D2E/DX2                !
 ! A156  A(10,24,33)           135.7602         estimate D2E/DX2                !
 ! A157  A(10,24,36)            79.7389         estimate D2E/DX2                !
 ! A158  A(17,24,25)            98.4938         estimate D2E/DX2                !
 ! A159  A(17,24,26)            75.8776         estimate D2E/DX2                !
 ! A160  A(17,24,28)           161.9575         estimate D2E/DX2                !
 ! A161  A(17,24,30)           136.9028         estimate D2E/DX2                !
 ! A162  A(17,24,32)            87.5946         estimate D2E/DX2                !
 ! A163  A(17,24,33)            90.6003         estimate D2E/DX2                !
 ! A164  A(25,24,28)            91.9001         estimate D2E/DX2                !
 ! A165  A(25,24,30)           107.0353         estimate D2E/DX2                !
 ! A166  A(25,24,32)           105.3952         estimate D2E/DX2                !
 ! A167  A(26,24,28)            90.4757         estimate D2E/DX2                !
 ! A168  A(26,24,30)            85.5144         estimate D2E/DX2                !
 ! A169  A(26,24,32)            87.8681         estimate D2E/DX2                !
 ! A170  A(26,24,33)           139.7179         estimate D2E/DX2                !
 ! A171  A(26,24,36)           120.8881         estimate D2E/DX2                !
 ! A172  A(28,24,32)           103.8818         estimate D2E/DX2                !
 ! A173  A(28,24,33)           107.4075         estimate D2E/DX2                !
 ! A174  A(28,24,36)           141.1034         estimate D2E/DX2                !
 ! A175  A(30,24,33)            78.9644         estimate D2E/DX2                !
 ! A176  A(30,24,36)           143.4335         estimate D2E/DX2                !
 ! A177  A(32,24,36)            99.9777         estimate D2E/DX2                !
 ! A178  A(33,24,36)            64.531          estimate D2E/DX2                !
 ! A179  A(33,25,36)            81.5319         estimate D2E/DX2                !
 ! A180  A(9,26,24)             95.0089         estimate D2E/DX2                !
 ! A181  A(24,26,27)            85.1737         estimate D2E/DX2                !
 ! A182  A(9,27,15)            104.331          estimate D2E/DX2                !
 ! A183  A(9,27,28)            100.7119         estimate D2E/DX2                !
 ! A184  A(9,27,29)            151.5543         estimate D2E/DX2                !
 ! A185  A(11,27,15)            99.5929         estimate D2E/DX2                !
 ! A186  A(11,27,26)           109.2257         estimate D2E/DX2                !
 ! A187  A(11,27,28)            81.3652         estimate D2E/DX2                !
 ! A188  A(11,27,29)           155.3771         estimate D2E/DX2                !
 ! A189  A(12,27,26)            97.7554         estimate D2E/DX2                !
 ! A190  A(12,27,28)           134.9727         estimate D2E/DX2                !
 ! A191  A(12,27,29)           132.4532         estimate D2E/DX2                !
 ! A192  A(15,27,26)           108.0185         estimate D2E/DX2                !
 ! A193  A(15,27,28)           149.0277         estimate D2E/DX2                !
 ! A194  A(15,27,29)            79.8807         estimate D2E/DX2                !
 ! A195  A(26,27,28)           100.6482         estimate D2E/DX2                !
 ! A196  A(26,27,29)            94.08           estimate D2E/DX2                !
 ! A197  A(28,27,29)            86.7431         estimate D2E/DX2                !
 ! A198  A(24,28,27)            83.6995         estimate D2E/DX2                !
 ! A199  A(27,28,30)            81.9806         estimate D2E/DX2                !
 ! A200  A(27,29,30)            82.1695         estimate D2E/DX2                !
 ! A201  A(24,30,29)           111.9277         estimate D2E/DX2                !
 ! A202  A(24,30,31)           133.7593         estimate D2E/DX2                !
 ! A203  A(28,30,29)           101.0827         estimate D2E/DX2                !
 ! A204  A(28,30,31)           109.7283         estimate D2E/DX2                !
 ! A205  A(28,30,32)           110.8924         estimate D2E/DX2                !
 ! A206  A(29,30,31)           114.0247         estimate D2E/DX2                !
 ! A207  A(29,30,32)           107.2481         estimate D2E/DX2                !
 ! A208  A(31,30,32)           113.2113         estimate D2E/DX2                !
 ! A209  A(30,32,33)            97.7504         estimate D2E/DX2                !
 ! A210  A(24,33,34)           135.1288         estimate D2E/DX2                !
 ! A211  A(24,33,35)           109.2492         estimate D2E/DX2                !
 ! A212  A(25,33,32)           111.2294         estimate D2E/DX2                !
 ! A213  A(25,33,34)           109.3797         estimate D2E/DX2                !
 ! A214  A(25,33,35)           100.1028         estimate D2E/DX2                !
 ! A215  A(32,33,34)           113.3666         estimate D2E/DX2                !
 ! A216  A(32,33,35)           106.7896         estimate D2E/DX2                !
 ! A217  A(34,33,35)           115.2154         estimate D2E/DX2                !
 ! A218  A(33,35,36)            81.1057         estimate D2E/DX2                !
 ! A219  A(13,36,24)            78.2273         estimate D2E/DX2                !
 ! A220  A(13,36,25)           106.7349         estimate D2E/DX2                !
 ! A221  A(13,36,35)           151.9017         estimate D2E/DX2                !
 ! A222  A(13,36,38)            97.8777         estimate D2E/DX2                !
 ! A223  A(17,36,25)           105.0883         estimate D2E/DX2                !
 ! A224  A(17,36,35)            95.7356         estimate D2E/DX2                !
 ! A225  A(17,36,37)           110.3551         estimate D2E/DX2                !
 ! A226  A(17,36,38)           101.2517         estimate D2E/DX2                !
 ! A227  A(17,36,39)            94.2504         estimate D2E/DX2                !
 ! A228  A(24,36,35)            92.2765         estimate D2E/DX2                !
 ! A229  A(24,36,37)           100.4218         estimate D2E/DX2                !
 ! A230  A(24,36,38)           153.3702         estimate D2E/DX2                !
 ! A231  A(24,36,39)           132.7348         estimate D2E/DX2                !
 ! A232  A(25,36,35)            86.2975         estimate D2E/DX2                !
 ! A233  A(25,36,37)            84.1825         estimate D2E/DX2                !
 ! A234  A(25,36,38)           150.8473         estimate D2E/DX2                !
 ! A235  A(25,36,39)           138.2697         estimate D2E/DX2                !
 ! A236  A(35,36,37)           153.7448         estimate D2E/DX2                !
 ! A237  A(35,36,38)            78.8022         estimate D2E/DX2                !
 ! A238  A(35,36,39)           128.723          estimate D2E/DX2                !
 ! A239  A(37,36,38)            98.2579         estimate D2E/DX2                !
 ! A240  A(13,39,38)           106.1552         estimate D2E/DX2                !
 ! A241  A(13,39,40)           109.0744         estimate D2E/DX2                !
 ! A242  A(13,39,41)           137.8437         estimate D2E/DX2                !
 ! A243  A(13,39,42)           120.3114         estimate D2E/DX2                !
 ! A244  A(16,39,36)            96.5605         estimate D2E/DX2                !
 ! A245  A(16,39,37)           114.2859         estimate D2E/DX2                !
 ! A246  A(16,39,38)            99.4693         estimate D2E/DX2                !
 ! A247  A(16,39,40)           127.1989         estimate D2E/DX2                !
 ! A248  A(16,39,41)            80.1826         estimate D2E/DX2                !
 ! A249  A(16,39,42)            90.7391         estimate D2E/DX2                !
 ! A250  A(36,39,40)           122.9674         estimate D2E/DX2                !
 ! A251  A(36,39,41)           138.2249         estimate D2E/DX2                !
 ! A252  A(37,39,38)            97.0704         estimate D2E/DX2                !
 ! A253  A(37,39,40)            76.9213         estimate D2E/DX2                !
 ! A254  A(37,39,41)           164.0958         estimate D2E/DX2                !
 ! A255  A(37,39,42)           122.6996         estimate D2E/DX2                !
 ! A256  A(38,39,40)           131.5164         estimate D2E/DX2                !
 ! A257  A(38,39,41)            86.4438         estimate D2E/DX2                !
 ! A258  A(38,39,42)           130.1461         estimate D2E/DX2                !
 ! A259  A(40,39,41)            89.1066         estimate D2E/DX2                !
 ! A260  A(19,42,39)           106.6502         estimate D2E/DX2                !
 ! A261  A(19,42,40)           114.3742         estimate D2E/DX2                !
 ! A262  A(19,42,41)           115.5415         estimate D2E/DX2                !
 ! A263  A(19,42,43)            95.95           estimate D2E/DX2                !
 ! A264  A(19,42,45)            89.8443         estimate D2E/DX2                !
 ! A265  A(39,42,43)           136.2546         estimate D2E/DX2                !
 ! A266  A(39,42,45)           141.446          estimate D2E/DX2                !
 ! A267  A(40,42,41)           102.3663         estimate D2E/DX2                !
 ! A268  A(40,42,43)            82.6481         estimate D2E/DX2                !
 ! A269  A(40,42,45)           147.6503         estimate D2E/DX2                !
 ! A270  A(41,42,43)           141.3304         estimate D2E/DX2                !
 ! A271  A(41,42,45)            84.3394         estimate D2E/DX2                !
 ! A272  A(43,42,45)            73.3603         estimate D2E/DX2                !
 ! A273  A(42,43,44)           103.46           estimate D2E/DX2                !
 ! A274  A(42,45,46)           101.7257         estimate D2E/DX2                !
 ! A275  L(4,9,26,2,-1)        190.3552         estimate D2E/DX2                !
 ! A276  L(6,9,27,1,-1)        190.1233         estimate D2E/DX2                !
 ! A277  L(8,9,11,1,-1)        193.7445         estimate D2E/DX2                !
 ! A278  L(21,12,27,2,-1)      182.6212         estimate D2E/DX2                !
 ! A279  L(7,13,17,8,-1)       170.3994         estimate D2E/DX2                !
 ! A280  L(10,24,32,17,-1)     169.7818         estimate D2E/DX2                !
 ! A281  L(25,24,26,10,-1)     166.0424         estimate D2E/DX2                !
 ! A282  L(36,39,42,16,-1)     187.2996         estimate D2E/DX2                !
 ! A283  L(4,9,26,2,-2)        189.0148         estimate D2E/DX2                !
 ! A284  L(6,9,27,1,-2)        188.2611         estimate D2E/DX2                !
 ! A285  L(8,9,11,1,-2)        175.7713         estimate D2E/DX2                !
 ! A286  L(21,12,27,2,-2)      179.2583         estimate D2E/DX2                !
 ! A287  L(7,13,17,8,-2)       171.7767         estimate D2E/DX2                !
 ! A288  L(10,24,32,17,-2)     170.574          estimate D2E/DX2                !
 ! A289  L(25,24,26,10,-2)     183.8821         estimate D2E/DX2                !
 ! A290  L(36,39,42,16,-2)     184.1988         estimate D2E/DX2                !
 ! D1    D(2,1,3,6)             86.277          estimate D2E/DX2                !
 ! D2    D(4,1,3,6)            -29.8758         estimate D2E/DX2                !
 ! D3    D(5,1,3,6)           -113.1461         estimate D2E/DX2                !
 ! D4    D(9,1,3,6)             27.3262         estimate D2E/DX2                !
 ! D5    D(12,1,3,6)            84.6676         estimate D2E/DX2                !
 ! D6    D(23,1,3,6)           175.3621         estimate D2E/DX2                !
 ! D7    D(2,1,4,6)            -71.0112         estimate D2E/DX2                !
 ! D8    D(3,1,4,6)             29.5655         estimate D2E/DX2                !
 ! D9    D(5,1,4,6)           -177.9789         estimate D2E/DX2                !
 ! D10   D(12,1,4,6)          -123.3688         estimate D2E/DX2                !
 ! D11   D(23,1,4,6)           107.1351         estimate D2E/DX2                !
 ! D12   D(2,1,5,21)            70.151          estimate D2E/DX2                !
 ! D13   D(3,1,5,21)           -89.7254         estimate D2E/DX2                !
 ! D14   D(4,1,5,21)          -174.4848         estimate D2E/DX2                !
 ! D15   D(9,1,5,21)           127.9536         estimate D2E/DX2                !
 ! D16   D(23,1,5,21)          -19.2521         estimate D2E/DX2                !
 ! D17   D(3,1,9,6)            -23.1067         estimate D2E/DX2                !
 ! D18   D(3,1,9,8)             12.0869         estimate D2E/DX2                !
 ! D19   D(3,1,9,10)           -75.8792         estimate D2E/DX2                !
 ! D20   D(3,1,9,11)          -163.6845         estimate D2E/DX2                !
 ! D21   D(3,1,9,26)            88.0282         estimate D2E/DX2                !
 ! D22   D(3,1,9,27)           148.6321         estimate D2E/DX2                !
 ! D23   D(5,1,9,6)            139.6443         estimate D2E/DX2                !
 ! D24   D(5,1,9,8)            174.8379         estimate D2E/DX2                !
 ! D25   D(5,1,9,10)            86.8718         estimate D2E/DX2                !
 ! D26   D(5,1,9,11)            -0.9335         estimate D2E/DX2                !
 ! D27   D(5,1,9,26)          -109.2208         estimate D2E/DX2                !
 ! D28   D(5,1,9,27)           -48.6168         estimate D2E/DX2                !
 ! D29   D(23,1,9,6)          -127.1877         estimate D2E/DX2                !
 ! D30   D(23,1,9,8)           -91.9942         estimate D2E/DX2                !
 ! D31   D(23,1,9,10)         -179.9602         estimate D2E/DX2                !
 ! D32   D(23,1,9,11)           92.2345         estimate D2E/DX2                !
 ! D33   D(23,1,9,26)          -16.0529         estimate D2E/DX2                !
 ! D34   D(23,1,9,27)           44.5511         estimate D2E/DX2                !
 ! D35   D(3,1,12,11)         -114.1525         estimate D2E/DX2                !
 ! D36   D(3,1,12,14)           87.8743         estimate D2E/DX2                !
 ! D37   D(3,1,12,15)           -3.6357         estimate D2E/DX2                !
 ! D38   D(3,1,12,21)          115.0294         estimate D2E/DX2                !
 ! D39   D(3,1,12,27)          -66.5682         estimate D2E/DX2                !
 ! D40   D(4,1,12,11)           -1.7435         estimate D2E/DX2                !
 ! D41   D(4,1,12,14)         -159.7167         estimate D2E/DX2                !
 ! D42   D(4,1,12,15)          108.7733         estimate D2E/DX2                !
 ! D43   D(4,1,12,21)         -132.5617         estimate D2E/DX2                !
 ! D44   D(4,1,12,27)           45.8407         estimate D2E/DX2                !
 ! D45   D(23,1,12,11)         158.5891         estimate D2E/DX2                !
 ! D46   D(23,1,12,14)           0.6159         estimate D2E/DX2                !
 ! D47   D(23,1,12,15)         -90.894          estimate D2E/DX2                !
 ! D48   D(23,1,12,21)          27.771          estimate D2E/DX2                !
 ! D49   D(23,1,12,27)        -153.8266         estimate D2E/DX2                !
 ! D50   D(2,1,23,21)          -87.1249         estimate D2E/DX2                !
 ! D51   D(3,1,23,21)          173.9847         estimate D2E/DX2                !
 ! D52   D(4,1,23,21)           94.5477         estimate D2E/DX2                !
 ! D53   D(5,1,23,21)           20.1256         estimate D2E/DX2                !
 ! D54   D(9,1,23,21)          -75.1874         estimate D2E/DX2                !
 ! D55   D(12,1,23,21)         -35.6775         estimate D2E/DX2                !
 ! D56   D(1,2,9,12)           -82.5857         estimate D2E/DX2                !
 ! D57   D(1,3,6,4)             28.9538         estimate D2E/DX2                !
 ! D58   D(1,3,6,7)             97.1972         estimate D2E/DX2                !
 ! D59   D(1,3,6,8)            -77.3641         estimate D2E/DX2                !
 ! D60   D(1,3,6,9)            -22.7107         estimate D2E/DX2                !
 ! D61   D(1,3,6,18)           178.4947         estimate D2E/DX2                !
 ! D62   D(1,3,6,20)          -172.9267         estimate D2E/DX2                !
 ! D63   D(1,4,6,3)            -28.814          estimate D2E/DX2                !
 ! D64   D(1,4,6,7)            178.4827         estimate D2E/DX2                !
 ! D65   D(1,4,6,8)             76.9428         estimate D2E/DX2                !
 ! D66   D(1,4,6,18)          -177.5763         estimate D2E/DX2                !
 ! D67   D(1,4,6,20)           -97.2444         estimate D2E/DX2                !
 ! D68   D(1,5,21,14)          -92.4051         estimate D2E/DX2                !
 ! D69   D(1,5,21,22)          144.1221         estimate D2E/DX2                !
 ! D70   D(1,5,21,23)           23.2939         estimate D2E/DX2                !
 ! D71   D(3,6,7,13)          -177.8866         estimate D2E/DX2                !
 ! D72   D(4,6,7,13)          -107.7563         estimate D2E/DX2                !
 ! D73   D(8,6,7,13)            -3.2762         estimate D2E/DX2                !
 ! D74   D(9,6,7,13)           -59.121          estimate D2E/DX2                !
 ! D75   D(20,6,7,13)           95.6942         estimate D2E/DX2                !
 ! D76   D(3,6,8,13)          -179.5696         estimate D2E/DX2                !
 ! D77   D(4,6,8,13)            87.3611         estimate D2E/DX2                !
 ! D78   D(7,6,8,13)             3.1542         estimate D2E/DX2                !
 ! D79   D(18,6,8,13)          -46.9788         estimate D2E/DX2                !
 ! D80   D(20,6,8,13)          -94.9655         estimate D2E/DX2                !
 ! D81   D(3,6,9,1)             21.5984         estimate D2E/DX2                !
 ! D82   D(3,6,9,2)            -27.1137         estimate D2E/DX2                !
 ! D83   D(3,6,9,10)           170.6946         estimate D2E/DX2                !
 ! D84   D(3,6,9,11)            94.0998         estimate D2E/DX2                !
 ! D85   D(3,6,9,12)            14.9805         estimate D2E/DX2                !
 ! D86   D(3,6,9,26)          -109.2853         estimate D2E/DX2                !
 ! D87   D(7,6,9,1)           -133.0105         estimate D2E/DX2                !
 ! D88   D(7,6,9,2)            178.2774         estimate D2E/DX2                !
 ! D89   D(7,6,9,10)            16.0857         estimate D2E/DX2                !
 ! D90   D(7,6,9,11)           -60.5091         estimate D2E/DX2                !
 ! D91   D(7,6,9,12)          -139.6284         estimate D2E/DX2                !
 ! D92   D(7,6,9,26)            96.1058         estimate D2E/DX2                !
 ! D93   D(18,6,9,1)          -179.6224         estimate D2E/DX2                !
 ! D94   D(18,6,9,2)           131.6656         estimate D2E/DX2                !
 ! D95   D(18,6,9,10)          -30.5262         estimate D2E/DX2                !
 ! D96   D(18,6,9,11)         -107.1209         estimate D2E/DX2                !
 ! D97   D(18,6,9,12)          173.7598         estimate D2E/DX2                !
 ! D98   D(18,6,9,26)           49.494          estimate D2E/DX2                !
 ! D99   D(20,6,9,1)           105.6005         estimate D2E/DX2                !
 ! D100  D(20,6,9,2)            56.8885         estimate D2E/DX2                !
 ! D101  D(20,6,9,10)         -105.3033         estimate D2E/DX2                !
 ! D102  D(20,6,9,11)          178.1019         estimate D2E/DX2                !
 ! D103  D(20,6,9,12)           98.9826         estimate D2E/DX2                !
 ! D104  D(20,6,9,26)          -25.2832         estimate D2E/DX2                !
 ! D105  D(3,6,18,13)          155.0911         estimate D2E/DX2                !
 ! D106  D(3,6,18,16)          110.5564         estimate D2E/DX2                !
 ! D107  D(3,6,18,19)          -45.6453         estimate D2E/DX2                !
 ! D108  D(4,6,18,13)          -67.9767         estimate D2E/DX2                !
 ! D109  D(4,6,18,16)         -112.5113         estimate D2E/DX2                !
 ! D110  D(4,6,18,19)           91.287          estimate D2E/DX2                !
 ! D111  D(8,6,18,13)           44.2104         estimate D2E/DX2                !
 ! D112  D(8,6,18,16)           -0.3242         estimate D2E/DX2                !
 ! D113  D(8,6,18,19)         -156.5259         estimate D2E/DX2                !
 ! D114  D(9,6,18,13)            3.4587         estimate D2E/DX2                !
 ! D115  D(9,6,18,16)          -41.0759         estimate D2E/DX2                !
 ! D116  D(9,6,18,19)          162.7224         estimate D2E/DX2                !
 ! D117  D(6,7,13,8)             2.7884         estimate D2E/DX2                !
 ! D118  D(6,7,13,10)           85.8437         estimate D2E/DX2                !
 ! D119  D(6,7,13,16)          -80.1188         estimate D2E/DX2                !
 ! D120  D(6,7,13,36)          164.8642         estimate D2E/DX2                !
 ! D121  D(6,7,13,37)          165.7519         estimate D2E/DX2                !
 ! D122  D(6,7,13,39)         -136.9818         estimate D2E/DX2                !
 ! D123  D(13,8,9,1)          -128.5384         estimate D2E/DX2                !
 ! D124  D(13,8,9,2)           178.2121         estimate D2E/DX2                !
 ! D125  D(13,8,9,4)           -73.5384         estimate D2E/DX2                !
 ! D126  D(13,8,9,10)           11.0707         estimate D2E/DX2                !
 ! D127  D(13,8,9,12)          172.2448         estimate D2E/DX2                !
 ! D128  D(13,8,9,26)           95.3608         estimate D2E/DX2                !
 ! D129  D(13,8,9,27)           93.7628         estimate D2E/DX2                !
 ! D130  D(6,8,13,7)            -3.0016         estimate D2E/DX2                !
 ! D131  D(6,8,13,10)          -89.6979         estimate D2E/DX2                !
 ! D132  D(6,8,13,16)           97.959          estimate D2E/DX2                !
 ! D133  D(6,8,13,17)         -174.7783         estimate D2E/DX2                !
 ! D134  D(6,8,13,18)           47.1998         estimate D2E/DX2                !
 ! D135  D(6,8,13,36)         -168.2124         estimate D2E/DX2                !
 ! D136  D(6,8,13,37)          -90.9666         estimate D2E/DX2                !
 ! D137  D(6,8,13,39)          100.3184         estimate D2E/DX2                !
 ! D138  D(9,8,13,7)            75.5993         estimate D2E/DX2                !
 ! D139  D(9,8,13,10)          -11.097          estimate D2E/DX2                !
 ! D140  D(9,8,13,16)          176.56           estimate D2E/DX2                !
 ! D141  D(9,8,13,17)          -96.1773         estimate D2E/DX2                !
 ! D142  D(9,8,13,18)          125.8008         estimate D2E/DX2                !
 ! D143  D(9,8,13,36)          -89.6114         estimate D2E/DX2                !
 ! D144  D(9,8,13,37)          -12.3657         estimate D2E/DX2                !
 ! D145  D(9,8,13,39)          178.9194         estimate D2E/DX2                !
 ! D146  D(1,9,10,13)           81.3451         estimate D2E/DX2                !
 ! D147  D(1,9,10,24)          178.6565         estimate D2E/DX2                !
 ! D148  D(2,9,10,13)          -57.8415         estimate D2E/DX2                !
 ! D149  D(2,9,10,24)           39.4699         estimate D2E/DX2                !
 ! D150  D(4,9,10,13)           85.6385         estimate D2E/DX2                !
 ! D151  D(4,9,10,24)         -177.0501         estimate D2E/DX2                !
 ! D152  D(6,9,10,13)           34.5787         estimate D2E/DX2                !
 ! D153  D(6,9,10,24)          131.8901         estimate D2E/DX2                !
 ! D154  D(8,9,10,13)          -11.4286         estimate D2E/DX2                !
 ! D155  D(8,9,10,24)           85.8828         estimate D2E/DX2                !
 ! D156  D(11,9,10,13)         174.2365         estimate D2E/DX2                !
 ! D157  D(11,9,10,24)         -88.4521         estimate D2E/DX2                !
 ! D158  D(12,9,10,13)        -172.6565         estimate D2E/DX2                !
 ! D159  D(12,9,10,24)         -75.3451         estimate D2E/DX2                !
 ! D160  D(26,9,10,13)         -87.5107         estimate D2E/DX2                !
 ! D161  D(26,9,10,24)           9.8007         estimate D2E/DX2                !
 ! D162  D(27,9,10,13)        -134.2099         estimate D2E/DX2                !
 ! D163  D(27,9,10,24)         -36.8985         estimate D2E/DX2                !
 ! D164  D(4,9,12,5)             2.6756         estimate D2E/DX2                !
 ! D165  D(4,9,12,14)          -88.4414         estimate D2E/DX2                !
 ! D166  D(4,9,12,15)          166.0454         estimate D2E/DX2                !
 ! D167  D(4,9,12,21)          -36.9364         estimate D2E/DX2                !
 ! D168  D(6,9,12,5)            50.6048         estimate D2E/DX2                !
 ! D169  D(6,9,12,14)          -40.5123         estimate D2E/DX2                !
 ! D170  D(6,9,12,15)         -146.0255         estimate D2E/DX2                !
 ! D171  D(6,9,12,21)           10.9927         estimate D2E/DX2                !
 ! D172  D(8,9,12,5)           115.1092         estimate D2E/DX2                !
 ! D173  D(8,9,12,14)           23.9921         estimate D2E/DX2                !
 ! D174  D(8,9,12,15)          -81.5211         estimate D2E/DX2                !
 ! D175  D(8,9,12,21)           75.4971         estimate D2E/DX2                !
 ! D176  D(10,9,12,5)          -92.6949         estimate D2E/DX2                !
 ! D177  D(10,9,12,14)         176.188          estimate D2E/DX2                !
 ! D178  D(10,9,12,15)          70.6748         estimate D2E/DX2                !
 ! D179  D(10,9,12,21)        -132.307          estimate D2E/DX2                !
 ! D180  D(26,9,12,5)         -174.2917         estimate D2E/DX2                !
 ! D181  D(26,9,12,14)          94.5912         estimate D2E/DX2                !
 ! D182  D(26,9,12,15)         -10.922          estimate D2E/DX2                !
 ! D183  D(26,9,12,21)         146.0962         estimate D2E/DX2                !
 ! D184  D(1,9,26,24)         -178.887          estimate D2E/DX2                !
 ! D185  D(2,9,26,24)          179.5392         estimate D2E/DX2                !
 ! D186  D(6,9,26,24)          -91.7557         estimate D2E/DX2                !
 ! D187  D(8,9,26,24)          -94.436          estimate D2E/DX2                !
 ! D188  D(10,9,26,24)          -9.2562         estimate D2E/DX2                !
 ! D189  D(11,9,26,24)          72.9124         estimate D2E/DX2                !
 ! D190  D(12,9,26,24)         127.4799         estimate D2E/DX2                !
 ! D191  D(1,9,27,15)          -21.6085         estimate D2E/DX2                !
 ! D192  D(1,9,27,28)          140.0096         estimate D2E/DX2                !
 ! D193  D(1,9,27,29)         -116.8228         estimate D2E/DX2                !
 ! D194  D(2,9,27,15)           22.5623         estimate D2E/DX2                !
 ! D195  D(2,9,27,28)         -175.8196         estimate D2E/DX2                !
 ! D196  D(2,9,27,29)          -72.652          estimate D2E/DX2                !
 ! D197  D(4,9,27,15)          -95.0534         estimate D2E/DX2                !
 ! D198  D(4,9,27,28)           66.5647         estimate D2E/DX2                !
 ! D199  D(4,9,27,29)          169.7323         estimate D2E/DX2                !
 ! D200  D(8,9,27,15)          104.6062         estimate D2E/DX2                !
 ! D201  D(8,9,27,28)          -93.7757         estimate D2E/DX2                !
 ! D202  D(8,9,27,29)            9.392          estimate D2E/DX2                !
 ! D203  D(10,9,27,15)        -174.7217         estimate D2E/DX2                !
 ! D204  D(10,9,27,28)         -13.1036         estimate D2E/DX2                !
 ! D205  D(10,9,27,29)          90.064          estimate D2E/DX2                !
 ! D206  D(9,10,13,7)          -82.245          estimate D2E/DX2                !
 ! D207  D(9,10,13,8)           11.3428         estimate D2E/DX2                !
 ! D208  D(9,10,13,16)          39.5139         estimate D2E/DX2                !
 ! D209  D(9,10,13,17)          89.1195         estimate D2E/DX2                !
 ! D210  D(9,10,13,18)         -63.3285         estimate D2E/DX2                !
 ! D211  D(9,10,13,36)         138.9325         estimate D2E/DX2                !
 ! D212  D(9,10,13,37)        -169.0343         estimate D2E/DX2                !
 ! D213  D(9,10,13,39)        -178.378          estimate D2E/DX2                !
 ! D214  D(24,10,13,7)         176.8991         estimate D2E/DX2                !
 ! D215  D(24,10,13,8)         -89.513          estimate D2E/DX2                !
 ! D216  D(24,10,13,16)        -61.3419         estimate D2E/DX2                !
 ! D217  D(24,10,13,17)        -11.7364         estimate D2E/DX2                !
 ! D218  D(24,10,13,18)       -164.1843         estimate D2E/DX2                !
 ! D219  D(24,10,13,36)         38.0767         estimate D2E/DX2                !
 ! D220  D(24,10,13,37)         90.1098         estimate D2E/DX2                !
 ! D221  D(24,10,13,39)         80.7662         estimate D2E/DX2                !
 ! D222  D(9,10,24,17)         -86.4507         estimate D2E/DX2                !
 ! D223  D(9,10,24,25)         174.3203         estimate D2E/DX2                !
 ! D224  D(9,10,24,26)          -9.5619         estimate D2E/DX2                !
 ! D225  D(9,10,24,28)          81.9269         estimate D2E/DX2                !
 ! D226  D(9,10,24,30)          65.1617         estimate D2E/DX2                !
 ! D227  D(9,10,24,33)        -169.2271         estimate D2E/DX2                !
 ! D228  D(9,10,24,36)        -133.5477         estimate D2E/DX2                !
 ! D229  D(13,10,24,17)         11.6241         estimate D2E/DX2                !
 ! D230  D(13,10,24,25)        -87.6049         estimate D2E/DX2                !
 ! D231  D(13,10,24,26)         88.513          estimate D2E/DX2                !
 ! D232  D(13,10,24,28)       -179.9982         estimate D2E/DX2                !
 ! D233  D(13,10,24,30)        163.2365         estimate D2E/DX2                !
 ! D234  D(13,10,24,33)        -71.1522         estimate D2E/DX2                !
 ! D235  D(13,10,24,36)        -35.4728         estimate D2E/DX2                !
 ! D236  D(9,11,12,27)         -80.5            estimate D2E/DX2                !
 ! D237  D(1,12,21,22)         143.5072         estimate D2E/DX2                !
 ! D238  D(1,12,21,23)         -33.5499         estimate D2E/DX2                !
 ! D239  D(2,12,21,22)        -169.9026         estimate D2E/DX2                !
 ! D240  D(2,12,21,23)          13.0403         estimate D2E/DX2                !
 ! D241  D(9,12,21,22)         139.523          estimate D2E/DX2                !
 ! D242  D(9,12,21,23)         -37.534          estimate D2E/DX2                !
 ! D243  D(11,12,21,22)         73.1669         estimate D2E/DX2                !
 ! D244  D(11,12,21,23)       -103.8901         estimate D2E/DX2                !
 ! D245  D(15,12,21,22)        -67.979          estimate D2E/DX2                !
 ! D246  D(15,12,21,23)        114.964          estimate D2E/DX2                !
 ! D247  D(1,12,27,26)          40.6103         estimate D2E/DX2                !
 ! D248  D(1,12,27,28)         -72.9468         estimate D2E/DX2                !
 ! D249  D(1,12,27,29)         143.4318         estimate D2E/DX2                !
 ! D250  D(2,12,27,26)          -6.7497         estimate D2E/DX2                !
 ! D251  D(2,12,27,28)        -120.3068         estimate D2E/DX2                !
 ! D252  D(2,12,27,29)          96.0717         estimate D2E/DX2                !
 ! D253  D(5,12,27,26)         106.5276         estimate D2E/DX2                !
 ! D254  D(5,12,27,28)          -7.0295         estimate D2E/DX2                !
 ! D255  D(5,12,27,29)        -150.651          estimate D2E/DX2                !
 ! D256  D(14,12,27,26)       -103.6733         estimate D2E/DX2                !
 ! D257  D(14,12,27,28)        142.7696         estimate D2E/DX2                !
 ! D258  D(14,12,27,29)         -0.8519         estimate D2E/DX2                !
 ! D259  D(8,13,17,24)          96.2057         estimate D2E/DX2                !
 ! D260  D(10,13,17,24)         11.7423         estimate D2E/DX2                !
 ! D261  D(16,13,17,24)        179.4045         estimate D2E/DX2                !
 ! D262  D(18,13,17,24)        164.6345         estimate D2E/DX2                !
 ! D263  D(37,13,17,24)        -66.5909         estimate D2E/DX2                !
 ! D264  D(39,13,17,24)       -125.177          estimate D2E/DX2                !
 ! D265  D(8,13,18,6)          -37.7848         estimate D2E/DX2                !
 ! D266  D(8,13,18,19)         166.8574         estimate D2E/DX2                !
 ! D267  D(8,13,18,20)          -6.3723         estimate D2E/DX2                !
 ! D268  D(10,13,18,6)          36.5153         estimate D2E/DX2                !
 ! D269  D(10,13,18,19)       -118.8425         estimate D2E/DX2                !
 ! D270  D(10,13,18,20)         67.9278         estimate D2E/DX2                !
 ! D271  D(17,13,18,6)        -103.4979         estimate D2E/DX2                !
 ! D272  D(17,13,18,19)        101.1442         estimate D2E/DX2                !
 ! D273  D(17,13,18,20)        -72.0854         estimate D2E/DX2                !
 ! D274  D(36,13,18,6)        -176.0484         estimate D2E/DX2                !
 ! D275  D(36,13,18,19)         28.5938         estimate D2E/DX2                !
 ! D276  D(36,13,18,20)       -144.6359         estimate D2E/DX2                !
 ! D277  D(37,13,18,6)         130.3552         estimate D2E/DX2                !
 ! D278  D(37,13,18,19)        -25.0026         estimate D2E/DX2                !
 ! D279  D(37,13,18,20)        161.7677         estimate D2E/DX2                !
 ! D280  D(39,13,18,6)         176.0295         estimate D2E/DX2                !
 ! D281  D(39,13,18,19)         20.6717         estimate D2E/DX2                !
 ! D282  D(39,13,18,20)       -152.558          estimate D2E/DX2                !
 ! D283  D(7,13,36,24)        -111.0905         estimate D2E/DX2                !
 ! D284  D(7,13,36,25)         -68.5465         estimate D2E/DX2                !
 ! D285  D(7,13,36,35)         176.6195         estimate D2E/DX2                !
 ! D286  D(7,13,36,38)          95.6579         estimate D2E/DX2                !
 ! D287  D(8,13,36,24)          46.4804         estimate D2E/DX2                !
 ! D288  D(8,13,36,25)          89.0244         estimate D2E/DX2                !
 ! D289  D(8,13,36,35)         -25.8096         estimate D2E/DX2                !
 ! D290  D(8,13,36,38)        -106.7712         estimate D2E/DX2                !
 ! D291  D(10,13,36,24)        -31.2281         estimate D2E/DX2                !
 ! D292  D(10,13,36,25)         11.3159         estimate D2E/DX2                !
 ! D293  D(10,13,36,35)       -103.5181         estimate D2E/DX2                !
 ! D294  D(10,13,36,38)        175.5203         estimate D2E/DX2                !
 ! D295  D(16,13,36,24)        132.6068         estimate D2E/DX2                !
 ! D296  D(16,13,36,25)        175.1507         estimate D2E/DX2                !
 ! D297  D(16,13,36,35)         60.3168         estimate D2E/DX2                !
 ! D298  D(16,13,36,38)        -20.6448         estimate D2E/DX2                !
 ! D299  D(18,13,36,24)        171.1614         estimate D2E/DX2                !
 ! D300  D(18,13,36,25)       -146.2946         estimate D2E/DX2                !
 ! D301  D(18,13,36,35)         98.8715         estimate D2E/DX2                !
 ! D302  D(18,13,36,38)         17.9099         estimate D2E/DX2                !
 ! D303  D(7,13,39,38)        -169.3237         estimate D2E/DX2                !
 ! D304  D(7,13,39,40)         -23.1899         estimate D2E/DX2                !
 ! D305  D(7,13,39,41)          87.7474         estimate D2E/DX2                !
 ! D306  D(7,13,39,42)          29.4333         estimate D2E/DX2                !
 ! D307  D(8,13,39,38)          88.4859         estimate D2E/DX2                !
 ! D308  D(8,13,39,40)        -125.3803         estimate D2E/DX2                !
 ! D309  D(8,13,39,41)         -14.443          estimate D2E/DX2                !
 ! D310  D(8,13,39,42)         -72.7571         estimate D2E/DX2                !
 ! D311  D(10,13,39,38)        -76.7902         estimate D2E/DX2                !
 ! D312  D(10,13,39,40)         69.3436         estimate D2E/DX2                !
 ! D313  D(10,13,39,41)       -179.7191         estimate D2E/DX2                !
 ! D314  D(10,13,39,42)        121.9668         estimate D2E/DX2                !
 ! D315  D(17,13,39,38)         10.7686         estimate D2E/DX2                !
 ! D316  D(17,13,39,40)        156.9023         estimate D2E/DX2                !
 ! D317  D(17,13,39,41)        -92.1604         estimate D2E/DX2                !
 ! D318  D(17,13,39,42)       -150.4744         estimate D2E/DX2                !
 ! D319  D(18,13,39,38)        145.541          estimate D2E/DX2                !
 ! D320  D(18,13,39,40)        -68.3252         estimate D2E/DX2                !
 ! D321  D(18,13,39,41)         42.6121         estimate D2E/DX2                !
 ! D322  D(18,13,39,42)        -15.702          estimate D2E/DX2                !
 ! D323  D(39,16,18,6)         116.645          estimate D2E/DX2                !
 ! D324  D(39,16,18,7)          61.9742         estimate D2E/DX2                !
 ! D325  D(39,16,18,19)        -79.4179         estimate D2E/DX2                !
 ! D326  D(39,16,18,20)        172.6853         estimate D2E/DX2                !
 ! D327  D(18,16,39,36)       -124.4715         estimate D2E/DX2                !
 ! D328  D(18,16,39,37)        -75.4368         estimate D2E/DX2                !
 ! D329  D(18,16,39,38)       -177.686          estimate D2E/DX2                !
 ! D330  D(18,16,39,40)         16.3288         estimate D2E/DX2                !
 ! D331  D(18,16,39,41)         97.6319         estimate D2E/DX2                !
 ! D332  D(18,16,39,42)         51.3297         estimate D2E/DX2                !
 ! D333  D(13,17,24,10)        -11.5722         estimate D2E/DX2                !
 ! D334  D(13,17,24,25)         72.6423         estimate D2E/DX2                !
 ! D335  D(13,17,24,26)        -93.7407         estimate D2E/DX2                !
 ! D336  D(13,17,24,28)        -51.8786         estimate D2E/DX2                !
 ! D337  D(13,17,24,30)       -160.9774         estimate D2E/DX2                !
 ! D338  D(13,17,24,32)        177.8538         estimate D2E/DX2                !
 ! D339  D(13,17,24,33)        124.6262         estimate D2E/DX2                !
 ! D340  D(6,18,19,42)        -153.5605         estimate D2E/DX2                !
 ! D341  D(7,18,19,42)         -84.1661         estimate D2E/DX2                !
 ! D342  D(13,18,19,42)        -11.3779         estimate D2E/DX2                !
 ! D343  D(16,18,19,42)         52.4585         estimate D2E/DX2                !
 ! D344  D(20,18,19,42)        162.2298         estimate D2E/DX2                !
 ! D345  D(18,19,42,39)         -5.3192         estimate D2E/DX2                !
 ! D346  D(18,19,42,40)         52.1952         estimate D2E/DX2                !
 ! D347  D(18,19,42,41)        -66.3005         estimate D2E/DX2                !
 ! D348  D(18,19,42,43)        136.7999         estimate D2E/DX2                !
 ! D349  D(18,19,42,45)       -149.9495         estimate D2E/DX2                !
 ! D350  D(5,21,23,1)          -22.3679         estimate D2E/DX2                !
 ! D351  D(12,21,23,1)          34.0152         estimate D2E/DX2                !
 ! D352  D(14,21,23,1)          89.9289         estimate D2E/DX2                !
 ! D353  D(22,21,23,1)        -144.2722         estimate D2E/DX2                !
 ! D354  D(10,24,26,9)           9.1619         estimate D2E/DX2                !
 ! D355  D(10,24,26,27)         84.2432         estimate D2E/DX2                !
 ! D356  D(17,24,26,9)          93.4084         estimate D2E/DX2                !
 ! D357  D(17,24,26,27)        168.4897         estimate D2E/DX2                !
 ! D358  D(28,24,26,9)         -74.6628         estimate D2E/DX2                !
 ! D359  D(28,24,26,27)          0.4185         estimate D2E/DX2                !
 ! D360  D(30,24,26,9)        -125.7863         estimate D2E/DX2                !
 ! D361  D(30,24,26,27)        -50.705          estimate D2E/DX2                !
 ! D362  D(32,24,26,9)        -178.5366         estimate D2E/DX2                !
 ! D363  D(32,24,26,27)       -103.4553         estimate D2E/DX2                !
 ! D364  D(33,24,26,9)         167.1391         estimate D2E/DX2                !
 ! D365  D(33,24,26,27)       -117.7796         estimate D2E/DX2                !
 ! D366  D(36,24,26,9)          81.107          estimate D2E/DX2                !
 ! D367  D(36,24,26,27)        156.1883         estimate D2E/DX2                !
 ! D368  D(10,24,28,27)        -80.8243         estimate D2E/DX2                !
 ! D369  D(17,24,28,27)        -40.7024         estimate D2E/DX2                !
 ! D370  D(25,24,28,27)       -166.0824         estimate D2E/DX2                !
 ! D371  D(26,24,28,27)         -0.3722         estimate D2E/DX2                !
 ! D372  D(32,24,28,27)         87.5493         estimate D2E/DX2                !
 ! D373  D(33,24,28,27)        142.9605         estimate D2E/DX2                !
 ! D374  D(36,24,28,27)       -146.2542         estimate D2E/DX2                !
 ! D375  D(10,24,30,29)        -66.9802         estimate D2E/DX2                !
 ! D376  D(10,24,30,31)        106.3082         estimate D2E/DX2                !
 ! D377  D(17,24,30,29)         69.4376         estimate D2E/DX2                !
 ! D378  D(17,24,30,31)       -117.274          estimate D2E/DX2                !
 ! D379  D(25,24,30,29)       -166.9506         estimate D2E/DX2                !
 ! D380  D(25,24,30,31)          6.3378         estimate D2E/DX2                !
 ! D381  D(26,24,30,29)          5.6725         estimate D2E/DX2                !
 ! D382  D(26,24,30,31)        178.9609         estimate D2E/DX2                !
 ! D383  D(33,24,30,29)        148.3211         estimate D2E/DX2                !
 ! D384  D(33,24,30,31)        -38.3905         estimate D2E/DX2                !
 ! D385  D(36,24,30,29)        145.0124         estimate D2E/DX2                !
 ! D386  D(36,24,30,31)        -41.6992         estimate D2E/DX2                !
 ! D387  D(10,24,33,34)       -103.8276         estimate D2E/DX2                !
 ! D388  D(10,24,33,35)         68.2176         estimate D2E/DX2                !
 ! D389  D(17,24,33,34)        176.7809         estimate D2E/DX2                !
 ! D390  D(17,24,33,35)        -11.1739         estimate D2E/DX2                !
 ! D391  D(26,24,33,34)        108.1906         estimate D2E/DX2                !
 ! D392  D(26,24,33,35)        -79.7641         estimate D2E/DX2                !
 ! D393  D(28,24,33,34)         -4.353          estimate D2E/DX2                !
 ! D394  D(28,24,33,35)        167.6923         estimate D2E/DX2                !
 ! D395  D(30,24,33,34)         38.8832         estimate D2E/DX2                !
 ! D396  D(30,24,33,35)       -149.0716         estimate D2E/DX2                !
 ! D397  D(36,24,33,34)       -143.2995         estimate D2E/DX2                !
 ! D398  D(36,24,33,35)         28.7457         estimate D2E/DX2                !
 ! D399  D(10,24,36,13)         31.0337         estimate D2E/DX2                !
 ! D400  D(10,24,36,35)       -175.6471         estimate D2E/DX2                !
 ! D401  D(10,24,36,37)        -18.7344         estimate D2E/DX2                !
 ! D402  D(10,24,36,38)        115.1045         estimate D2E/DX2                !
 ! D403  D(10,24,36,39)         31.5957         estimate D2E/DX2                !
 ! D404  D(26,24,36,13)        -41.3524         estimate D2E/DX2                !
 ! D405  D(26,24,36,35)        111.9668         estimate D2E/DX2                !
 ! D406  D(26,24,36,37)        -91.1205         estimate D2E/DX2                !
 ! D407  D(26,24,36,38)         42.7184         estimate D2E/DX2                !
 ! D408  D(26,24,36,39)        -40.7904         estimate D2E/DX2                !
 ! D409  D(28,24,36,13)         97.8359         estimate D2E/DX2                !
 ! D410  D(28,24,36,35)       -108.8449         estimate D2E/DX2                !
 ! D411  D(28,24,36,37)         48.0677         estimate D2E/DX2                !
 ! D412  D(28,24,36,38)       -178.0933         estimate D2E/DX2                !
 ! D413  D(28,24,36,39)         98.3979         estimate D2E/DX2                !
 ! D414  D(30,24,36,13)       -172.1582         estimate D2E/DX2                !
 ! D415  D(30,24,36,35)        -18.839          estimate D2E/DX2                !
 ! D416  D(30,24,36,37)        138.0736         estimate D2E/DX2                !
 ! D417  D(30,24,36,38)        -88.0874         estimate D2E/DX2                !
 ! D418  D(30,24,36,39)       -171.5962         estimate D2E/DX2                !
 ! D419  D(32,24,36,13)       -134.8625         estimate D2E/DX2                !
 ! D420  D(32,24,36,35)         18.4566         estimate D2E/DX2                !
 ! D421  D(32,24,36,37)        175.3693         estimate D2E/DX2                !
 ! D422  D(32,24,36,38)        -50.7917         estimate D2E/DX2                !
 ! D423  D(32,24,36,39)       -134.3005         estimate D2E/DX2                !
 ! D424  D(33,24,36,13)       -175.7557         estimate D2E/DX2                !
 ! D425  D(33,24,36,35)        -22.4365         estimate D2E/DX2                !
 ! D426  D(33,24,36,37)        134.4762         estimate D2E/DX2                !
 ! D427  D(33,24,36,38)        -91.6849         estimate D2E/DX2                !
 ! D428  D(33,24,36,39)       -175.1937         estimate D2E/DX2                !
 ! D429  D(36,25,33,32)         85.3062         estimate D2E/DX2                !
 ! D430  D(36,25,33,34)       -148.7006         estimate D2E/DX2                !
 ! D431  D(36,25,33,35)        -27.2745         estimate D2E/DX2                !
 ! D432  D(33,25,36,13)       -132.3219         estimate D2E/DX2                !
 ! D433  D(33,25,36,17)        -72.6328         estimate D2E/DX2                !
 ! D434  D(33,25,36,35)         22.3166         estimate D2E/DX2                !
 ! D435  D(33,25,36,37)        177.8156         estimate D2E/DX2                !
 ! D436  D(33,25,36,38)         81.2863         estimate D2E/DX2                !
 ! D437  D(33,25,36,39)        172.6843         estimate D2E/DX2                !
 ! D438  D(24,26,27,11)        -84.898          estimate D2E/DX2                !
 ! D439  D(24,26,27,12)       -139.1313         estimate D2E/DX2                !
 ! D440  D(24,26,27,15)        167.7028         estimate D2E/DX2                !
 ! D441  D(24,26,27,28)         -0.4196         estimate D2E/DX2                !
 ! D442  D(24,26,27,29)         87.0273         estimate D2E/DX2                !
 ! D443  D(9,27,28,24)          59.2279         estimate D2E/DX2                !
 ! D444  D(9,27,28,30)         133.0965         estimate D2E/DX2                !
 ! D445  D(11,27,28,24)        108.5333         estimate D2E/DX2                !
 ! D446  D(11,27,28,30)       -177.5981         estimate D2E/DX2                !
 ! D447  D(12,27,28,24)        112.9063         estimate D2E/DX2                !
 ! D448  D(12,27,28,30)       -173.2251         estimate D2E/DX2                !
 ! D449  D(15,27,28,24)       -157.1927         estimate D2E/DX2                !
 ! D450  D(15,27,28,30)        -83.3241         estimate D2E/DX2                !
 ! D451  D(26,27,28,24)          0.4531         estimate D2E/DX2                !
 ! D452  D(26,27,28,30)         74.3217         estimate D2E/DX2                !
 ! D453  D(29,27,28,24)        -93.0909         estimate D2E/DX2                !
 ! D454  D(29,27,28,30)        -19.2223         estimate D2E/DX2                !
 ! D455  D(9,27,29,30)         -86.2143         estimate D2E/DX2                !
 ! D456  D(11,27,29,30)         81.3743         estimate D2E/DX2                !
 ! D457  D(12,27,29,30)        175.5407         estimate D2E/DX2                !
 ! D458  D(15,27,29,30)        172.3417         estimate D2E/DX2                !
 ! D459  D(26,27,29,30)        -80.0637         estimate D2E/DX2                !
 ! D460  D(28,27,29,30)         20.3927         estimate D2E/DX2                !
 ! D461  D(27,28,30,29)         23.2963         estimate D2E/DX2                !
 ! D462  D(27,28,30,31)        144.0254         estimate D2E/DX2                !
 ! D463  D(27,28,30,32)        -90.1681         estimate D2E/DX2                !
 ! D464  D(27,29,30,24)         34.742          estimate D2E/DX2                !
 ! D465  D(27,29,30,28)        -22.3156         estimate D2E/DX2                !
 ! D466  D(27,29,30,31)       -139.9553         estimate D2E/DX2                !
 ! D467  D(27,29,30,32)         93.8725         estimate D2E/DX2                !
 ! D468  D(28,30,32,33)        -62.076          estimate D2E/DX2                !
 ! D469  D(29,30,32,33)       -171.585          estimate D2E/DX2                !
 ! D470  D(31,30,32,33)         61.7607         estimate D2E/DX2                !
 ! D471  D(30,32,33,25)         61.393          estimate D2E/DX2                !
 ! D472  D(30,32,33,34)        -62.3608         estimate D2E/DX2                !
 ! D473  D(30,32,33,35)        169.6797         estimate D2E/DX2                !
 ! D474  D(24,33,35,36)        -30.9507         estimate D2E/DX2                !
 ! D475  D(25,33,35,36)         25.6952         estimate D2E/DX2                !
 ! D476  D(32,33,35,36)        -90.2774         estimate D2E/DX2                !
 ! D477  D(34,33,35,36)        142.8538         estimate D2E/DX2                !
 ! D478  D(33,35,36,13)         95.5269         estimate D2E/DX2                !
 ! D479  D(33,35,36,17)         80.9045         estimate D2E/DX2                !
 ! D480  D(33,35,36,24)         26.5707         estimate D2E/DX2                !
 ! D481  D(33,35,36,25)        -23.9085         estimate D2E/DX2                !
 ! D482  D(33,35,36,37)        -92.7592         estimate D2E/DX2                !
 ! D483  D(33,35,36,38)       -178.7244         estimate D2E/DX2                !
 ! D484  D(33,35,36,39)       -178.958          estimate D2E/DX2                !
 ! D485  D(39,36,37,13)        -68.7163         estimate D2E/DX2                !
 ! D486  D(17,36,39,16)          4.2121         estimate D2E/DX2                !
 ! D487  D(17,36,39,40)       -138.914          estimate D2E/DX2                !
 ! D488  D(17,36,39,41)         86.8068         estimate D2E/DX2                !
 ! D489  D(24,36,39,16)         47.4804         estimate D2E/DX2                !
 ! D490  D(24,36,39,40)        -95.6458         estimate D2E/DX2                !
 ! D491  D(24,36,39,41)        130.075          estimate D2E/DX2                !
 ! D492  D(25,36,39,16)        122.6025         estimate D2E/DX2                !
 ! D493  D(25,36,39,40)        -20.5236         estimate D2E/DX2                !
 ! D494  D(25,36,39,41)       -154.8028         estimate D2E/DX2                !
 ! D495  D(35,36,39,16)        -96.6264         estimate D2E/DX2                !
 ! D496  D(35,36,39,40)        120.2475         estimate D2E/DX2                !
 ! D497  D(35,36,39,41)        -14.0317         estimate D2E/DX2                !
 ! D498  D(13,39,42,19)         18.9419         estimate D2E/DX2                !
 ! D499  D(13,39,42,43)        -99.0234         estimate D2E/DX2                !
 ! D500  D(13,39,42,45)        130.7009         estimate D2E/DX2                !
 ! D501  D(16,39,42,19)        -34.1573         estimate D2E/DX2                !
 ! D502  D(16,39,42,43)       -152.1227         estimate D2E/DX2                !
 ! D503  D(16,39,42,45)         77.6016         estimate D2E/DX2                !
 ! D504  D(37,39,42,19)         85.6492         estimate D2E/DX2                !
 ! D505  D(37,39,42,43)        -32.3162         estimate D2E/DX2                !
 ! D506  D(37,39,42,45)       -162.5919         estimate D2E/DX2                !
 ! D507  D(38,39,42,19)       -137.2264         estimate D2E/DX2                !
[...]
 01515,-0.00002523,-0.00000890,0.00011239,0.00001355,-0.00004699,-0.000
 08198,-0.00000384,0.00009581,-0.00007385,-0.00004857,-0.00004735,-0.00
 040031,-0.00005653,0.00034962,-0.00052255,0.00060795,0.00046075,-0.000
 18305,0.00015299,0.00027272,0.00450441,0.00288857,-0.00115051,-0.01771
 597,-0.00068987,-0.00663126,-0.00160118,-0.00508649,-0.00035375,-0.041
 62693,0.00055886,-0.02316615,0.19268898,0.00004212,-0.00006107,-0.0001
 0287,0.00003049,0.00001215,-0.00000808,0.00001102,0.00004814,-0.000012
 45,-0.00005074,-0.00001945,0.00003996,-0.00002811,-0.00001884,0.000007
 77,0.00000553,-0.00012097,-0.00018012,-0.00005968,-0.00005611,0.000085
 67,0.00006927,0.00007056,-0.00009946,-0.00009643,0.00000061,0.00015759
 ,-0.00004736,-0.00003787,0.00002551,-0.00003397,-0.00000481,-0.0000221
 7,0.00005812,0.00009252,0.00004017,-0.00004773,-0.00021123,0.00004844,
 0.00000025,0.00001263,-0.00000812,-0.00001123,-0.00001769,0.00000315,-
 0.00013200,0.00003071,0.00012347,0.00003624,0.00001552,-0.00000617,0.0
 0206763,0.00025267,0.00036938,-0.00104412,0.00195573,-0.00330700,-0.00
 010740,0.00005071,-0.00004493,0.00004030,-0.00004747,0.00000224,-0.000
 01981,0.00003726,-0.00001631,-0.00000628,0.00000511,-0.00000060,0.0000
 9610,-0.00000182,0.00000903,-0.00001951,-0.00000288,0.00001672,0.00002
 695,0.00000682,-0.00000203,0.00000505,0.00001245,0.00003043,0.00000969
 ,0.00000084,0.00001201,-0.00000248,-0.00000901,0.00000818,0.00000195,0
 .00000936,-0.00004174,-0.00001693,-0.00000570,0.00002433,-0.00000152,-
 0.00001194,0.00000364,-0.00001823,0.00006135,0.00000772,-0.00002003,-0
 .00000662,0.00002038,0.00002784,-0.00004063,-0.00000963,-0.00027932,0.
 00008705,0.00019608,-0.00026638,-0.00038935,0.00000896,-0.00022164,0.0
 0010273,-0.00019891,-0.00009250,0.00007190,0.00023990,0.00347917,0.002
 36089,0.00071670,-0.00291340,0.00341787,-0.00400173,-0.00211511,-0.016
 19959,-0.00005564,-0.04332809,0.02950812,0.00016123,-0.00001254,-0.000
 11433,0.00006782,-0.00001901,-0.00000768,0.00010708,-0.00003225,0.0000
 2976,-0.00001591,-0.00004308,0.00004238,-0.00006003,-0.00002690,0.0000
 1552,-0.00053950,-0.00002476,-0.00048555,0.00001128,-0.00003062,0.0002
 6793,0.00015764,0.00018463,-0.00018167,-0.00027777,-0.00010591,0.00028
 751,-0.00021292,-0.00012899,0.00011574,-0.00008216,-0.00001278,-0.0000
 6467,0.00010242,0.00020113,0.00004255,0.00069520,-0.00028054,0.0007973
 0,-0.00000426,0.00002829,-0.00002878,-0.00001981,0.00000060,0.00000592
 ,-0.00062170,-0.00002096,0.00061913,0.00004397,0.00004373,-0.00010904,
 0.00347464,0.00007054,0.00023613,-0.00363348,0.00332572,-0.00447627,0.
 00001073,0.00013179,-0.00019487,0.00012511,-0.00015655,0.00002974,-0.0
 0006445,0.00012949,-0.00006277,-0.00002021,0.00001334,-0.00001763,-0.0
 0002469,0.00002984,-0.00007939,0.00005161,-0.00002538,0.00003856,0.000
 10830,0.00001137,-0.00000900,0.00006195,0.00001420,0.00014061,0.000018
 54,0.00000092,-0.00000330,-0.00001237,-0.00002532,0.00000487,0.0000558
 7,0.00001724,-0.00011555,-0.00007924,-0.00001600,0.00010315,0.00000392
 ,-0.00002625,0.00000902,0.00004587,0.00002663,-0.00008893,-0.00010102,
 -0.00000705,0.00012240,0.00001263,-0.00007703,-0.00002335,-0.00055958,
 0.00035794,0.00029477,-0.00050047,-0.00008607,0.00032861,-0.00017677,0
 .00037743,-0.00014981,0.00189708,0.00049258,-0.00147920,-0.00311963,-0
 .00020765,0.00105181,-0.00176720,-0.00745823,-0.00051819,-0.04103145,0
 .00012904,-0.05720465,-0.08540362,0.04632139,0.20308513,0.00001816,0.0
 0003421,0.00000778,-0.00000569,-0.00001200,0.00000725,-0.00001139,-0.0
 0002280,0.00001517,0.00000728,0.00000129,-0.00001935,0.00000128,-0.000
 00146,-0.00000166,0.00001599,0.00003235,-0.00001943,0.00000898,-0.0000
 1542,0.00003695,0.00001213,-0.00000635,0.00000769,-0.00000236,-0.00001
 300,0.00000213,-0.00004067,-0.00000255,0.00004471,-0.00000224,0.000002
 82,-0.00001032,-0.00001136,-0.00000528,-0.00001063,0.00008806,-0.00005
 549,0.00011494,-0.00000030,0.00000009,-0.00000097,0.00000815,0.0000116
 6,0.00000412,-0.00005286,-0.00001589,0.00022090,0.00001773,0.00003164,
 -0.00001705,0.00034103,0.00013812,0.00005950,-0.00049534,0.00024837,-0
 .00018187,0.00001536,0.00001007,-0.00007181,-0.00000467,0.00000887,-0.
 00000382,0.00000349,-0.00000605,0.00000261,0.00000060,0.00000022,-0.00
 000011,0.00005423,0.00002457,-0.00001079,-0.00001215,-0.00000409,0.000
 00072,0.00000661,-0.00000226,-0.00000261,0.00000749,-0.00000125,0.0000
 0319,-0.00000185,-0.00000283,0.00000467,0.00000032,-0.00000042,0.00000
 366,-0.00001355,0.00000157,0.00000404,0.00000538,-0.00000073,-0.000004
 81,-0.00000065,-0.00001019,0.00000007,-0.00000225,0.00000943,0.0000392
 9,0.00000297,0.00000132,-0.00001185,-0.00001200,-0.00000864,-0.0000253
 0,-0.00008741,-0.00000345,0.00004148,-0.00020242,-0.00002748,0.0000594
 1,0.00004393,-0.00007481,0.00010737,-0.00018796,0.00018171,-0.00019406
 ,-0.00199624,-0.00010196,-0.00267904,0.00025391,-0.00015447,0.00007246
 ,0.00290100,-0.00175218,-0.00752553,-0.13585299,0.04446471,0.12152917,
 0.13443583,0.00001202,0.00001972,0.00000371,0.00000237,-0.00000872,0.0
 0000318,0.00000315,-0.00002372,0.00002442,0.00000911,-0.00000427,-0.00
 000958,-0.00000302,-0.00000235,-0.00000006,-0.00002929,0.00004576,-0.0
 0002929,0.00003344,0.00001507,0.00001081,0.00000471,0.00000243,0.00000
 062,-0.00003621,-0.00002871,-0.00000127,-0.00002924,0.00002409,-0.0000
 1761,-0.00000452,0.00000580,-0.00000881,0.00000520,0.00001123,0.000002
 10,0.00003348,-0.00007970,0.00048258,-0.00000134,-0.00000129,-0.000000
 47,0.00000634,0.00000165,0.00000447,0.00020619,-0.00001817,-0.00002302
 ,-0.00000251,0.00000453,-0.00006044,0.00003852,-0.00002847,-0.00021540
 ,-0.00067723,0.00029814,-0.00006317,0.00005837,-0.00000888,-0.00005568
 ,0.00000293,0.00001090,-0.00000477,0.00000334,-0.00000646,0.00000259,-
 0.00000026,0.00000020,0.00000023,0.00006673,-0.00000488,0.00002405,0.0
 0001551,-0.00001760,0.00000757,0.00001105,-0.00000152,-0.00000197,-0.0
 0000515,0.00000932,-0.00000124,0.00000149,-0.00000073,-0.00000750,0.00
 000171,-0.00000298,0.00001074,-0.00001078,0.00000194,-0.00001267,-0.00
 000015,-0.00000047,-0.00000091,0.00000005,0.00000118,0.00000028,-0.000
 04531,-0.00001106,-0.00000461,-0.00000108,0.00000214,-0.00000126,0.000
 02730,0.00000871,0.00000538,0.00003719,0.00007643,-0.00008451,0.000069
 25,0.00024406,-0.00009876,0.00026279,-0.00010943,0.00001859,-0.0005071
 2,0.00006760,-0.00049285,0.00013439,-0.00054288,0.00144224,0.00048196,
 -0.00026052,-0.00011838,0.00087789,-0.00060430,0.00089198,0.04161541,-
 0.02131656,-0.04287421,-0.04344131,0.02075246,-0.00000496,0.00000108,-
 0.00001048,-0.00000366,0.00000126,-0.00000138,-0.00002296,0.00001069,0
 .00000009,-0.00000363,-0.00000245,-0.00001212,0.00000109,-0.00000111,-
 0.00000155,0.00009755,-0.00001887,0.00006399,0.00002023,0.00000059,-0.
 00002334,-0.00000370,-0.00001638,0.00000609,0.00000135,0.00000770,0.00
 000781,0.00000769,0.00001385,0.00000109,0.00000118,0.00000232,-0.00000
 515,-0.00000962,-0.00000881,0.00000423,0.00005757,-0.00002280,-0.00013
 356,0.00000045,-0.00000109,0.00000253,0.00000523,-0.00000080,0.0000017
 6,-0.00007240,-0.00001697,0.00006955,-0.00000659,0.00001867,0.00002141
 ,-0.00014594,0.00005447,-0.00000136,-0.00000869,-0.00007457,0.00031407
 ,0.00001838,0.00000441,-0.00002488,-0.00000771,0.00001458,-0.00000619,
 0.00000570,-0.00001163,0.00000592,0.00000246,-0.00000058,0.00000284,0.
 00002797,-0.00001813,-0.00000335,-0.00000146,-0.00004167,0.00000586,-0
 .00000331,-0.00000222,-0.00000189,-0.00000932,0.00000402,-0.00001351,0
 .00000180,0.00000047,0.00000797,0.00000204,0.00000094,0.00000492,-0.00
 001081,0.00000171,-0.00000332,0.00000942,0.00000039,-0.00000818,0.0000
 0402,-0.00000796,0.00000665,-0.00004863,0.00003957,0.00003743,0.000011
 40,-0.00000330,-0.00002027,0.00004426,-0.00000151,0.00000507,-0.000113
 81,0.00013300,-0.00013231,-0.00010572,-0.00033405,0.00006856,0.0001284
 2,-0.00006044,-0.00002999,-0.00068124,-0.00033134,0.00023274,-0.001589
 36,0.00173084,-0.00078541,0.00005479,0.00055451,0.00011456,0.00636071,
 -0.00323618,-0.00784591,0.10950648,-0.04069189,-0.12485291,-0.11273555
 ,0.04280113,0.13508752,0.00008209,0.00016037,0.00008098,-0.00000944,-0
 .00007548,0.00000991,0.00003961,-0.00009531,-0.00004139,0.00012496,0.0
 0004083,0.00001836,0.00000830,0.00003664,0.00001829,-0.00031363,-0.000
 19022,-0.00014184,-0.00003883,0.00025704,0.00024214,-0.00008379,0.0000
 9140,-0.00002413,-0.00005943,-0.00005838,-0.00010544,-0.00011845,-0.00
 001003,0.00006223,-0.00003932,-0.00003868,-0.00000676,0.00001756,0.000
 02737,-0.00003949,0.00047026,0.00021563,0.00042034,-0.00000627,0.00002
 053,-0.00004268,-0.00003589,0.00005462,-0.00002907,-0.00021150,0.00016
 562,0.00028636,0.00008865,0.00002243,0.00001674,0.00034468,0.00020349,
 -0.00057337,-0.01255166,0.00483840,-0.00556918,0.00017340,0.00023717,-
 0.00029129,0.00006962,-0.00020823,0.00009316,-0.00007187,0.00015474,-0
 .00007815,-0.00000426,0.00001524,-0.00004050,-0.00025080,0.00022026,-0
 .00019285,-0.00010831,0.00010231,-0.00004852,0.00007213,0.00001443,0.0
 0001237,0.00018100,-0.00001050,0.00016286,-0.00004580,0.00001296,-0.00
 000839,-0.00002776,-0.00000533,-0.00006132,0.00011829,0.00000724,0.000
 01021,-0.00007941,-0.00001629,0.00010509,0.00000941,-0.00001506,-0.000
 01142,0.00036358,-0.00004640,-0.00005183,-0.00010525,-0.00000919,0.000
 12751,-0.00015314,-0.00003905,-0.00004484,0.00089138,0.00018230,0.0002
 2688,-0.00105545,0.00051847,0.00010059,-0.00036477,-0.00048050,0.00037
 702,0.00673600,0.00141486,0.00153568,-0.01265390,0.00708336,0.00756965
 ,-0.00496264,-0.00445085,-0.00126435,-0.07690300,-0.01744995,0.0058729
 3,0.00120770,0.00045214,0.00899594,0.00085790,0.00105561,-0.00085525,0
 .11872709,-0.00003912,0.00010159,0.00012927,-0.00005766,-0.00002883,0.
 00001630,-0.00004245,-0.00005569,0.00000672,-0.00001592,0.00002038,-0.
 00014880,0.00004346,0.00001927,-0.00002361,0.00023886,0.00017567,0.000
 28931,-0.00006794,-0.00021968,0.00000782,-0.00004170,-0.00010016,0.000
 03063,0.00021630,0.00009879,-0.00005897,-0.00008554,-0.00002542,0.0000
 9390,0.00004748,0.00000095,0.00000730,-0.00011392,-0.00014838,-0.00008
 952,0.00066513,0.00000430,0.00012515,0.00000337,-0.00001219,0.00001204
 ,0.00003243,0.00004703,0.00000541,0.00006189,0.00013895,-0.00001531,-0
 .00003548,0.00009215,-0.00004717,-0.00009324,-0.00032541,0.00023460,0.
 00695810,-0.00159117,0.00238807,0.00000534,-0.00008550,0.00015738,-0.0
 0008927,0.00009210,-0.00002067,0.00003861,-0.00007503,0.00003516,0.000
 00498,-0.00000674,0.00001000,0.00004343,0.00004089,-0.00013944,-0.0000
 6986,-0.00005330,0.00009494,-0.00005562,0.00000404,-0.00000801,0.00001
 523,-0.00004075,-0.00004947,-0.00001748,-0.00001101,0.00002125,-0.0000
 0082,0.00001731,-0.00001780,-0.00002648,-0.00000523,0.00008820,0.00004
 639,0.00000384,-0.00004727,-0.00000586,-0.00003117,-0.00000044,0.00006
 860,0.00009578,0.00015461,0.00004072,-0.00001206,-0.00006960,0.0000180
 2,-0.00001736,-0.00005682,-0.00007158,0.00019382,0.00032810,-0.0009901
 6,0.00019285,0.00020198,-0.00038387,-0.00032193,0.00040867,0.00487525,
 0.00122283,-0.00097486,-0.00372497,0.00107287,0.00561047,-0.00689163,-
 0.00040483,0.00001016,-0.00222431,-0.01069083,-0.00959880,-0.00067722,
 -0.00014489,0.00158544,0.00125940,0.00074727,-0.00142393,0.02332811,0.
 06555564,0.00029664,0.00023723,-0.00006162,0.00000699,-0.00008264,0.00
 004247,0.00000089,-0.00026435,0.00027629,0.00010864,0.00006670,0.00001
 244,-0.00001638,-0.00005212,0.00000235,-0.00058395,0.00019574,-0.00130
 573,-0.00003279,0.00003208,0.00057302,0.00006045,0.00009293,-0.0000806
 5,-0.00020012,-0.00019244,0.00024446,-0.00020755,0.00001272,0.00027688
 ,-0.00005690,-0.00000633,-0.00011561,-0.00002343,0.00006361,-0.0000449
 8,0.00206466,-0.00107480,0.00101879,-0.00000141,-0.00000392,0.00000995
 ,0.00014107,0.00007583,0.00010564,-0.00028054,0.00036192,0.00013652,-0
 .00012784,0.00026743,-0.00050823,0.00128753,-0.00087405,0.00023628,-0.
 00699011,0.00239543,-0.00132848,0.00028912,0.00054847,-0.00041589,-0.0
 0000589,0.00017762,-0.00010406,0.00006334,-0.00012364,0.00005938,0.000
 00018,-0.00000285,0.00002295,0.00093474,-0.00030574,-0.00000364,0.0001
 3290,-0.00007583,0.00029859,0.00010763,-0.00000093,-0.00006074,-0.0001
 4483,0.00003991,-0.00001222,0.00005532,-0.00006039,0.00005391,0.000027
 60,-0.00003910,0.00011284,-0.00016381,0.00003799,-0.00004666,0.0000744
 4,-0.00000465,-0.00008725,-0.00008483,-0.00010755,-0.00002675,-0.00017
 366,0.00021809,0.00037427,0.00008344,-0.00003099,-0.00016902,-0.000055
 24,-0.00008933,0.00002070,-0.00117959,0.00032676,0.00104343,-0.0019231
 0,-0.00039703,0.00048718,-0.00129740,-0.00042600,0.00021989,0.00724400
 ,0.00185672,-0.00201285,-0.00148300,0.00358060,-0.00159696,0.00037510,
 0.00056361,0.00019035,0.01710554,-0.00589203,-0.01237000,0.00844719,0.
 00163466,-0.01771128,0.00056941,-0.00218766,-0.00150418,0.01845941,0.0
 9934201,0.23465250,-0.00010410,-0.00010009,-0.00000227,0.00000289,0.00
 003687,-0.00002044,-0.00000858,0.00009474,-0.00008450,-0.00003305,-0.0
 0001607,0.00002544,0.00000359,0.00001054,0.00000112,0.00022132,-0.0001
 0440,0.00039380,-0.00001937,0.00005014,-0.00017790,-0.00001882,-0.0000
 2425,0.00002513,0.00005081,0.00006175,-0.00006396,0.00008785,0.0000029
 2,-0.00012752,0.00001881,0.00000562,0.00004060,0.00002168,-0.00001422,
 0.00001508,-0.00076033,0.00035118,-0.00044665,0.00000090,-0.00000124,0
 .00000267,-0.00003812,-0.00003332,-0.00002349,0.00002440,-0.00020479,-
 0.00003711,0.00002964,-0.00008833,0.00016647,-0.00065909,0.00041886,-0
 .00025804,0.00009924,0.00078292,0.00011325,-0.00007588,-0.00018750,0.0
 0016027,-0.00000188,-0.00002875,0.00001788,-0.00001044,0.00001856,-0.0
 0000833,-0.00000094,0.00000055,-0.00000261,-0.00022660,0.00005879,0.00
 004897,-0.00001467,0.00001447,-0.00009268,-0.00003666,-0.00000108,0.00
 001659,0.00000915,-0.00000767,-0.00001757,-0.00000799,0.00001453,-0.00
 001491,-0.00000405,0.00001020,-0.00002315,0.00003117,-0.00001229,0.000
 01026,-0.00001393,0.00000324,0.00001264,0.00001901,0.00003893,0.000003
 60,-0.00000012,-0.00007968,-0.00011393,-0.00001490,0.00001318,0.000039
 21,0.00000374,0.00003015,0.00001335,0.00028511,-0.00013771,-0.00031296
 ,0.00077424,0.00015402,-0.00024913,0.00040815,0.00029792,-0.00021480,-
 0.00323772,-0.00139539,0.00053120,0.00261855,-0.00188937,-0.00115457,-
 0.00082935,-0.00048265,0.00081743,0.00015172,0.00661605,0.00914552,-0.
 00025506,0.00005548,0.00059021,-0.00011149,-0.00028297,0.00007413,-0.0
 2032903,-0.02218898,-0.04290387,0.02195021,-0.00005031,-0.00001511,0.0
 0002204,-0.00000197,-0.00000570,0.00000933,0.00001081,0.00002860,-0.00
 005545,0.00001775,0.00001889,0.00003321,0.00000505,0.00002281,0.000004
 75,0.00010908,-0.00021227,0.00007042,-0.00014683,0.00018674,-0.0000288
 6,0.00000846,0.00004425,0.00002787,0.00004203,-0.00000270,-0.00008841,
 0.00002532,0.00002145,0.00003616,0.00000350,0.00001263,0.00000689,0.00
 001371,0.00001566,0.,-0.00023577,-0.00022080,0.00013921,-0.00000572,-0
 .00000311,-0.00000811,-0.00002630,-0.00001248,-0.00001967,-0.00003172,
 0.00026807,-0.00012116,0.00001773,-0.00001681,0.00006899,0.00030766,0.
 00019380,0.00013644,-0.00164448,0.00088541,-0.00025777,0.00004725,0.00
 011304,-0.00009434,0.00003109,-0.00005580,0.00004174,-0.00002274,0.000
 04739,-0.00002374,-0.00000086,-0.00000201,-0.00001255,-0.00014700,0.00
 004983,-0.00002366,-0.00002188,-0.00000005,-0.00006146,0.00000552,-0.0
 0000809,0.00001747,0.00004142,0.00000893,0.00001958,-0.00001779,0.0000
 1557,-0.00000085,-0.00000482,0.00000008,-0.00001469,0.00004322,0.00000
 288,-0.00002139,-0.00002810,-0.00000380,0.00003664,0.00001725,0.000016
 78,0.00001026,0.00002202,-0.00001777,-0.00009890,-0.00003051,-0.000005
 14,0.00005785,0.00004685,0.00003042,0.00002284,0.00011567,0.00003165,-
 0.00040012,0.00038139,-0.00027975,0.00014823,0.00049127,-0.00031451,0.
 00011318,-0.00110811,0.00012309,0.00048036,0.00019184,0.00140092,-0.00
 116965,0.00089882,0.00015249,0.00118137,0.00121631,-0.00293905,0.00012
 675,-0.00027107,0.00050081,-0.00179523,-0.00072007,0.00073303,0.000932
 50,-0.01773410,-0.05553074,-0.09983370,0.01813915,0.05472048,0.0000479
 2,0.00001934,-0.00002541,0.00000933,-0.00000662,-0.00000180,0.00001884
 ,-0.00002318,0.00002737,0.00000217,-0.00000465,-0.00000222,-0.00000911
 ,-0.00001284,0.00000074,-0.00015385,0.00005309,-0.00010442,0.00000023,
 -0.00001139,0.00008027,0.00000025,0.00000182,-0.00002467,-0.00004676,-
 0.00002438,0.00006978,-0.00004194,-0.00001288,0.00000737,-0.00001359,-
 0.00000686,-0.00001119,0.00000794,0.00002185,0.00000282,0.00015685,0.0
 0007620,0.00003638,0.00000168,0.00000546,-0.00000206,0.00000985,0.0000
 0960,0.00001023,0.00003187,-0.00014065,0.00011126,-0.00000102,0.000018
 81,-0.00004261,0.00050482,0.00002235,0.00016210,-0.00086101,-0.0000118
 6,-0.00016856,0.00003714,0.00003259,-0.00005385,0.00000420,0.00000009,
 -0.00001072,0.00000037,-0.00000076,0.00000075,-0.00000079,0.00000218,0
 .00000153,0.00008902,-0.00001062,-0.00000995,0.00000490,0.00000190,0.0
 0003967,0.00001620,0.00000552,-0.00000911,-0.00000266,-0.00000512,0.00
 001738,0.00000651,-0.00000649,0.00000443,0.00000017,-0.00000445,0.0000
 0686,-0.00001185,0.00000547,-0.00000213,0.00000238,-0.00000150,-0.0000
 0299,-0.00000978,-0.00001363,-0.00000859,0.00002088,0.00001382,0.00004
 561,-0.00000036,-0.00000099,-0.00001082,-0.00003791,-0.00002449,-0.000
 01111,-0.00005516,0.00000760,0.00020201,-0.00033687,0.00019251,-0.0000
 5387,-0.00030188,0.00014493,-0.00003202,0.00108367,-0.00003016,-0.0000
 0286,-0.00080566,-0.00022421,0.00088950,-0.00086310,0.00019681,-0.0002
 1030,0.00059455,-0.00133131,-0.00526321,0.00153071,-0.00134360,0.00031
 029,0.00056785,0.00063945,-0.00065142,-0.03528256,-0.09860436,-0.20090
 432,0.03408557,0.10038563,0.20559391\\0.00001267,0.00000093,-0.0000025
 1,-0.00000390,0.00000066,0.00000213,0.00000171,-0.00000239,0.00000134,
 0.00000334,-0.00000113,0.00000008,0.00000014,-0.00000236,-0.00000263,-
 0.00001525,0.00000452,-0.00001832,-0.00001122,-0.00000339,-0.00000125,
 -0.00000594,0.00000179,0.,-0.00000291,-0.00000693,0.00001489,-0.000011
 56,-0.00000463,-0.00000306,0.00000281,-0.00000064,-0.00000223,-0.00001
 576,0.00001757,0.00000409,0.00006351,0.00000032,0.00001103,0.00000169,
 -0.00000167,-0.00000267,0.00000229,-0.00000032,-0.00000499,-0.00001793
 ,0.00000180,-0.00001584,-0.00000369,0.00001760,0.00000063,-0.00001627,
 0.00000507,0.00001422,0.00000346,-0.00000727,0.00001539,0.00001671,0.0
 0000246,-0.00000832,0.00000786,-0.00000022,0.00000030,-0.00000168,-0.0
 0000157,-0.00000152,-0.00000580,0.00000003,-0.00000381,0.00000444,0.00
 000031,0.00002468,-0.00000345,-0.00000099,-0.00000638,-0.00000229,0.00
 000074,-0.00001039,0.00001100,-0.00000761,0.00001459,0.00000045,-0.000
 00066,-0.00000738,-0.00000455,0.00000124,-0.00000417,-0.00000096,-0.00
 000114,-0.00000148,-0.00000251,0.00000148,-0.00000232,0.00000151,0.000
 00535,-0.00000595,-0.00000380,-0.00000263,-0.00000036,0.00000146,-0.00
 000166,-0.00000014,-0.00001179,0.00000325,0.00001617,0.00003263,-0.000
 01143,0.00001126,-0.00002521,-0.00000045,-0.00000799,-0.00002543,-0.00
 000019,-0.00000259,0.00003933,-0.00000852,0.00000465,-0.00001930,0.000
 01154,-0.00000201,0.00001144,0.00000333,-0.00001019,-0.00002466,-0.000
 00385,0.00000135,0.00001632,-0.00000258,-0.00000863,-0.00000402,0.0000
 0264,0.00000186,0.00000061,-0.00000635,0.00000320,0.00000450,-0.000002
 01,-0.00000471\\\@
 The archive entry for this job was punched.


 SCIENCE IS A VERY HUMAN FORM OF KNOWLEDGE.
 WE ARE ALWAYS AT THE BRINK OF THE KNOWN,
 WE ALWAYS FEEL FORWARD FOR WHAT IS HOPED.
 EVERY JUDGEMENT IN SCIENCE STANDS ON THE EDGE OF ERROR, AND IS PERSONAL.
 SCIENCE IS A TRIBUTE TO WHAT WE CAN KNOW ALTHOUGH WE ARE FALLIBLE.

                     -- J. BRONOWSKI
 Job cpu time:       1 days 14 hours 49 minutes 55.9 seconds.
 Elapsed time:       0 days  0 hours 50 minutes 50.5 seconds.
 File lengths (MBytes):  RWF=   5226 Int=      0 D2E=      0 Chk=     70 Scr=      2
 Normal termination of Gaussian 16 at Thu Dec 22 18:17:35 2022.
