 Entering Gaussian System, Link 0=g16
 Initial command:
 /home/chesagar/softwares/G16_AVX2//g16/l1.exe "/home/chesagar/scratch/Gau-197528.inp" -scrdir="/home/chesagar/scratch/"
 Entering Link 1 = /home/chesagar/softwares/G16_AVX2//g16/l1.exe PID=    197531.
  
 Copyright (c) 1988-2019, Gaussian, Inc.  All Rights Reserved.
  
 This is part of the Gaussian(R) 16 program.  It is based on
 the Gaussian(R) 09 system (copyright 2009, Gaussian, Inc.),
 the Gaussian(R) 03 system (copyright 2003, Gaussian, Inc.),
 the Gaussian(R) 98 system (copyright 1998, Gaussian, Inc.),
 the Gaussian(R) 94 system (copyright 1995, Gaussian, Inc.),
 the Gaussian 92(TM) system (copyright 1992, Gaussian, Inc.),
 the Gaussian 90(TM) system (copyright 1990, Gaussian, Inc.),
 the Gaussian 88(TM) system (copyright 1988, Gaussian, Inc.),
 the Gaussian 86(TM) system (copyright 1986, Carnegie Mellon
 University), and the Gaussian 82(TM) system (copyright 1983,
 Carnegie Mellon University). Gaussian is a federally registered
 trademark of Gaussian, Inc.
  
 This software contains proprietary and confidential information,
 including trade secrets, belonging to Gaussian, Inc.
  
 This software is provided under written license and may be
 used, copied, transmitted, or stored only in accord with that
 written license.
  
 The following legend is applicable only to US Government
 contracts under FAR:
  
                    RESTRICTED RIGHTS LEGEND
  
 Use, reproduction and disclosure by the US Government is
 subject to restrictions as set forth in subparagraphs (a)
 and (c) of the Commercial Computer Software - Restricted
 Rights clause in FAR 52.227-19.
  
 Gaussian, Inc.
 340 Quinnipiac St., Bldg. 40, Wallingford CT 06492
  
  
 ---------------------------------------------------------------
 Warning -- This program may not be used in any manner that
 competes with the business of Gaussian, Inc. or will provide
 assistance to any competitor of Gaussian, Inc.  The licensee
 of this program is prohibited from giving any competitor of
 Gaussian, Inc. access to this program.  By using this program,
 the user acknowledges that Gaussian, Inc. is engaged in the
 business of creating and licensing software in the field of
 computational chemistry and represents and warrants to the
 licensee that it is not a competitor of Gaussian, Inc. and that
 it will not use this program in any manner prohibited above.
 ---------------------------------------------------------------
  

 Cite this work as:
 Gaussian 16, Revision C.01,
 M. J. Frisch, G. W. Trucks, H. B. Schlegel, G. E. Scuseria, 
 M. A. Robb, J. R. Cheeseman, G. Scalmani, V. Barone, 
 G. A. Petersson, H. Nakatsuji, X. Li, M. Caricato, A. V. Marenich, 
 J. Bloino, B. G. Janesko, R. Gomperts, B. Mennucci, H. P. Hratchian, 
 J. V. Ortiz, A. F. Izmaylov, J. L. Sonnenberg, D. Williams-Young, 
 F. Ding, F. Lipparini, F. Egidi, J. Goings, B. Peng, A. Petrone, 
 T. Henderson, D. Ranasinghe, V. G. Zakrzewski, J. Gao, N. Rega, 
 G. Zheng, W. Liang, M. Hada, M. Ehara, K. Toyota, R. Fukuda, 
 J. Hasegawa, M. Ishida, T. Nakajima, Y. Honda, O. Kitao, H. Nakai, 
 T. Vreven, K. Throssell, J. A. Montgomery, Jr., J. E. Peralta, 
 F. Ogliaro, M. J. Bearpark, J. J. Heyd, E. N. Brothers, K. N. Kudin, 
 V. N. Staroverov, T. A. Keith, R. Kobayashi, J. Normand, 
 K. Raghavachari, A. P. Rendell, J. C. Burant, S. S. Iyengar, 
 J. Tomasi, M. Cossi, J. M. Millam, M. Klene, C. Adamo, R. Cammi, 
 J. W. Ochterski, R. L. Martin, K. Morokuma, O. Farkas, 
 J. B. Foresman, and D. J. Fox, Gaussian, Inc., Wallingford CT, 2019.
 
 ******************************************
 Gaussian 16:  ES64L-G16RevC.01  3-Jul-2019
                23-Dec-2022 
 ******************************************
 %nprocshared=46
 Will use up to   46 processors via shared memory.
 %mem=100GB
 ---------------------------------------
 # opt freq b3lyp/gen nosymm pseudo=read
 ---------------------------------------
 1/18=20,19=15,26=3,38=1/1,3;
 2/9=110,12=2,15=1,17=6,18=5,40=1/2;
 3/5=7,11=2,16=1,17=8,25=1,30=1,71=1,74=-5/1,2,3;
 4//1;
 5/5=2,38=5/2;
 6/7=2,8=2,9=2,10=2,28=1/1;
 7/30=1/1,2,3,16;
 1/18=20,19=15,26=3/3(2);
 2/9=110,15=1/2;
 99//99;
 2/9=110,15=1/2;
 3/5=7,6=1,11=2,16=1,17=8,25=1,30=1,71=1,74=-5,82=7/1,2,3;
 4/5=5,16=3,69=1/1;
 5/5=2,38=5/2;
 7/30=1/1,2,3,16;
 1/18=20,19=15,26=3/3(-5);
 2/9=110,15=1/2;
 6/7=2,8=2,9=2,10=2,19=2,28=1/1;
 99/9=1/99;
 -------------------
 Title Card Required
 -------------------
 Symbolic Z-matrix:
 Charge =  0 Multiplicity = 1
 42                    0.69558   1.48137   12.49059 
 16                    1.74138   3.60281   12.67045 
 16                   -1.40369   2.01664   13.39534 
 16                   -0.29849   0.96143   10.392 
 16                    2.48154  -0.13245   11.82961 
 42                   -1.89127   2.63935   11.12058 
 16                   -2.82727   2.12893   8.93838 
 16                   -0.88813   4.65489   10.84242 
 42                    1.02594   3.05659   10.37686 
 16                    0.22613   3.2845    8.02626 
 16                    2.82604   1.80727   9.34007 
 42                    3.38492   2.28278   11.63983 
 42                   -1.95739   4.40538   8.54227 
 16                    4.64864   1.98806   13.83097 
 16                    5.06356   3.86511   11.28176 
 16                   -3.72189   5.9324    9.32975 
 16                   -0.52662   6.50872   8.30915 
 42                   -4.27428   3.70304   9.88002 
 16                   -6.45274   3.03574   9.08139 
 16                   -3.96025   3.51838   12.08209 
 42                    3.18345   0.30877   13.98955 
 16                    4.00876  -1.3802    14.97644 
 16                    1.31715   1.00829   14.96603 
 42                    1.52791   5.36521   7.32563 
 16                    0.60148   4.94801   5.12001 
 16                    2.02168   5.41013   9.91811 
 42                    3.67806   4.03341   9.40237 
 16                    3.37585   3.79608   6.93079 
 16                    5.39531   5.90292   8.88287 
 42                    4.31315   5.93273   6.96172 
 16                    5.54504   6.1954    5.26593 
 16                    2.60256   7.6065    7.16074 
 42                    1.45189   7.13602   5.10493 
 16                    2.6422    7.41366   3.37888 
 16                   -0.40353   8.35725   5.18392 
 42                   -1.28923   6.14698   6.22585 
 16                   -2.23552   3.95785   6.23014 
 16                   -3.26049   7.4832    6.10902 
 42                   -3.97597   5.51228   6.93298 
 16                   -5.16419   3.95642   5.53905 
 16                   -6.23032   6.52939   7.41389 
 42                   -7.35604   4.62461   7.63449 
 16                   -7.24559   3.73354   5.47216 
 16                   -9.45948   4.88396   8.08719 
 

 GradGradGradGradGradGradGradGradGradGradGradGradGradGradGradGradGradGrad
 Berny optimization.
 Initialization pass.
                           ----------------------------
                           !    Initial Parameters    !
                           ! (Angstroms and Degrees)  !
 --------------------------                            --------------------------
 ! Name  Definition              Value          Derivative Info.                !
 --------------------------------------------------------------------------------
 ! R1    R(1,2)                  2.372          estimate D2E/DX2                !
 ! R2    R(1,3)                  2.3478         estimate D2E/DX2                !
 ! R3    R(1,4)                  2.3796         estimate D2E/DX2                !
 ! R4    R(1,5)                  2.4962         estimate D2E/DX2                !
 ! R5    R(1,9)                  2.6567         estimate D2E/DX2                !
 ! R6    R(1,12)                 2.9323         estimate D2E/DX2                !
 ! R7    R(1,23)                 2.5958         estimate D2E/DX2                !
 ! R8    R(2,9)                  2.4639         estimate D2E/DX2                !
 ! R9    R(2,12)                 2.3465         estimate D2E/DX2                !
 ! R10   R(3,6)                  2.4083         estimate D2E/DX2                !
 ! R11   R(4,6)                  2.4255         estimate D2E/DX2                !
 ! R12   R(4,9)                  2.4787         estimate D2E/DX2                !
 ! R13   R(5,12)                 2.5856         estimate D2E/DX2                !
 ! R14   R(5,21)                 2.3136         estimate D2E/DX2                !
 ! R15   R(6,7)                  2.4287         estimate D2E/DX2                !
 ! R16   R(6,8)                  2.2685         estimate D2E/DX2                !
 ! R17   R(6,9)                  3.0393         estimate D2E/DX2                !
 ! R18   R(6,18)                 2.8895         estimate D2E/DX2                !
 ! R19   R(6,20)                 2.445          estimate D2E/DX2                !
 ! R20   R(7,13)                 2.469          estimate D2E/DX2                !
 ! R21   R(7,18)                 2.3363         estimate D2E/DX2                !
 ! R22   R(8,9)                  2.5367         estimate D2E/DX2                !
 ! R23   R(8,13)                 2.5488         estimate D2E/DX2                !
 ! R24   R(9,10)                 2.4934         estimate D2E/DX2                !
 ! R25   R(9,11)                 2.4241         estimate D2E/DX2                !
 ! R26   R(9,12)                 2.7854         estimate D2E/DX2                !
 ! R27   R(9,26)                 2.5964         estimate D2E/DX2                !
 ! R28   R(9,27)                 2.9896         estimate D2E/DX2                !
 ! R29   R(10,13)                2.5081         estimate D2E/DX2                !
 ! R30   R(10,24)                2.5524         estimate D2E/DX2                !
 ! R31   R(11,12)                2.414          estimate D2E/DX2                !
 ! R32   R(11,27)                2.3844         estimate D2E/DX2                !
 ! R33   R(12,14)                2.5466         estimate D2E/DX2                !
 ! R34   R(12,15)                2.3345         estimate D2E/DX2                !
 ! R35   R(12,21)                3.0755         estimate D2E/DX2                !
 ! R36   R(12,27)                2.856          estimate D2E/DX2                !
 ! R37   R(13,16)                2.4628         estimate D2E/DX2                !
 ! R38   R(13,17)                2.5545         estimate D2E/DX2                !
 ! R39   R(13,18)                2.766          estimate D2E/DX2                !
 ! R40   R(13,36)                2.9741         estimate D2E/DX2                !
 ! R41   R(13,37)                2.3714         estimate D2E/DX2                !
 ! R42   R(13,39)                2.8089         estimate D2E/DX2                !
 ! R43   R(14,21)                2.2343         estimate D2E/DX2                !
 ! R44   R(15,27)                2.3409         estimate D2E/DX2                !
 ! R45   R(16,18)                2.3618         estimate D2E/DX2                !
 ! R46   R(16,39)                2.4465         estimate D2E/DX2                !
 ! R47   R(17,24)                2.5487         estimate D2E/DX2                !
 ! R48   R(17,36)                2.2478         estimate D2E/DX2                !
 ! R49   R(18,19)                2.4143         estimate D2E/DX2                !
 ! R50   R(18,20)                2.232          estimate D2E/DX2                !
 ! R51   R(19,42)                2.3311         estimate D2E/DX2                !
 ! R52   R(21,22)                2.1231         estimate D2E/DX2                !
 ! R53   R(21,23)                2.2194         estimate D2E/DX2                !
 ! R54   R(24,25)                2.4284         estimate D2E/DX2                !
 ! R55   R(24,26)                2.6395         estimate D2E/DX2                !
 ! R56   R(24,28)                2.4562         estimate D2E/DX2                !
 ! R57   R(24,30)                2.8657         estimate D2E/DX2                !
 ! R58   R(24,32)                2.4911         estimate D2E/DX2                !
 ! R59   R(24,33)                2.8413         estimate D2E/DX2                !
 ! R60   R(25,33)                2.3475         estimate D2E/DX2                !
 ! R61   R(25,36)                2.497          estimate D2E/DX2                !
 ! R62   R(26,27)                2.2147         estimate D2E/DX2                !
 ! R63   R(27,28)                2.5013         estimate D2E/DX2                !
 ! R64   R(27,29)                2.5911         estimate D2E/DX2                !
 ! R65   R(28,30)                2.3334         estimate D2E/DX2                !
 ! R66   R(29,30)                2.2052         estimate D2E/DX2                !
 ! R67   R(30,31)                2.1124         estimate D2E/DX2                !
 ! R68   R(30,32)                2.4015         estimate D2E/DX2                !
 ! R69   R(32,33)                2.4024         estimate D2E/DX2                !
 ! R70   R(33,34)                2.115          estimate D2E/DX2                !
 ! R71   R(33,35)                2.2227         estimate D2E/DX2                !
 ! R72   R(35,36)                2.5991         estimate D2E/DX2                !
 ! R73   R(36,37)                2.3849         estimate D2E/DX2                !
 ! R74   R(36,38)                2.3843         estimate D2E/DX2                !
 ! R75   R(36,39)                2.8498         estimate D2E/DX2                !
 ! R76   R(37,39)                2.4371         estimate D2E/DX2                !
 ! R77   R(38,39)                2.2529         estimate D2E/DX2                !
 ! R78   R(39,40)                2.4032         estimate D2E/DX2                !
 ! R79   R(39,41)                2.5195         estimate D2E/DX2                !
 ! R80   R(40,43)                2.0944         estimate D2E/DX2                !
 ! R81   R(41,42)                2.2235         estimate D2E/DX2                !
 ! R82   R(42,43)                2.3413         estimate D2E/DX2                !
 ! R83   R(42,44)                2.1672         estimate D2E/DX2                !
 ! A1    A(2,1,3)               99.2706         estimate D2E/DX2                !
 ! A2    A(2,1,4)              116.517          estimate D2E/DX2                !
 ! A3    A(2,1,5)              106.4302         estimate D2E/DX2                !
 ! A4    A(2,1,23)              89.1471         estimate D2E/DX2                !
 ! A5    A(3,1,4)               90.9249         estimate D2E/DX2                !
 ! A6    A(3,1,5)              152.7712         estimate D2E/DX2                !
 ! A7    A(3,1,9)              106.4159         estimate D2E/DX2                !
 ! A8    A(3,1,12)             150.407          estimate D2E/DX2                !
 ! A9    A(3,1,23)              83.5786         estimate D2E/DX2                !
 ! A10   A(4,1,5)               85.647          estimate D2E/DX2                !
 ! A11   A(4,1,12)             100.7763         estimate D2E/DX2                !
 ! A12   A(4,1,23)             154.3205         estimate D2E/DX2                !
 ! A13   A(5,1,9)               94.8004         estimate D2E/DX2                !
 ! A14   A(5,1,23)              87.9007         estimate D2E/DX2                !
 ! A15   A(9,1,23)             146.8263         estimate D2E/DX2                !
 ! A16   A(12,1,23)             96.1354         estimate D2E/DX2                !
 ! A17   A(1,3,6)               82.8762         estimate D2E/DX2                !
 ! A18   A(1,4,6)               81.8518         estimate D2E/DX2                !
 ! A19   A(1,5,21)              81.1737         estimate D2E/DX2                !
 ! A20   A(3,6,4)               88.3899         estimate D2E/DX2                !
 ! A21   A(3,6,7)              150.7336         estimate D2E/DX2                !
 ! A22   A(3,6,8)              104.8342         estimate D2E/DX2                !
 ! A23   A(3,6,9)               94.1462         estimate D2E/DX2                !
 ! A24   A(3,6,18)             131.8881         estimate D2E/DX2                !
 ! A25   A(3,6,20)              83.848          estimate D2E/DX2                !
 ! A26   A(4,6,7)               80.6655         estimate D2E/DX2                !
 ! A27   A(4,6,8)              106.7034         estimate D2E/DX2                !
 ! A28   A(4,6,18)             131.8563         estimate D2E/DX2                !
 ! A29   A(4,6,20)             157.2986         estimate D2E/DX2                !
 ! A30   A(7,6,8)              104.2987         estimate D2E/DX2                !
 ! A31   A(7,6,9)              100.3055         estimate D2E/DX2                !
 ! A32   A(7,6,20)              95.8992         estimate D2E/DX2                !
 ! A33   A(8,6,18)              89.1391         estimate D2E/DX2                !
 ! A34   A(8,6,20)              95.9113         estimate D2E/DX2                !
 ! A35   A(9,6,18)             129.4935         estimate D2E/DX2                !
 ! A36   A(9,6,20)             149.2159         estimate D2E/DX2                !
 ! A37   A(6,7,13)              79.3151         estimate D2E/DX2                !
 ! A38   A(6,8,13)              80.6865         estimate D2E/DX2                !
 ! A39   A(9,8,13)              95.1199         estimate D2E/DX2                !
 ! A40   A(1,9,6)               66.7069         estimate D2E/DX2                !
 ! A41   A(1,9,8)               97.6852         estimate D2E/DX2                !
 ! A42   A(1,9,10)             139.8499         estimate D2E/DX2                !
 ! A43   A(1,9,11)              97.2991         estimate D2E/DX2                !
 ! A44   A(1,9,26)             136.5291         estimate D2E/DX2                !
 ! A45   A(1,9,27)             124.2897         estimate D2E/DX2                !
 ! A46   A(2,9,4)              109.6848         estimate D2E/DX2                !
 ! A47   A(2,9,6)               94.6662         estimate D2E/DX2                !
 ! A48   A(2,9,8)               84.7543         estimate D2E/DX2                !
 ! A49   A(2,9,10)             161.8885         estimate D2E/DX2                !
 ! A50   A(2,9,11)             107.2637         estimate D2E/DX2                !
 ! A51   A(2,9,26)              81.4983         estimate D2E/DX2                !
 ! A52   A(2,9,27)              88.476          estimate D2E/DX2                !
 ! A53   A(4,9,8)               97.3702         estimate D2E/DX2                !
 ! A54   A(4,9,10)              84.93           estimate D2E/DX2                !
 ! A55   A(4,9,11)              87.9234         estimate D2E/DX2                !
 ! A56   A(4,9,12)             102.4111         estimate D2E/DX2                !
 ! A57   A(4,9,27)             138.7797         estimate D2E/DX2                !
 ! A58   A(6,9,10)              86.2932         estimate D2E/DX2                !
 ! A59   A(6,9,11)             138.303          estimate D2E/DX2                !
 ! A60   A(6,9,12)             131.5892         estimate D2E/DX2                !
 ! A61   A(6,9,26)             122.3973         estimate D2E/DX2                !
 ! A62   A(8,9,10)              82.7263         estimate D2E/DX2                !
 ! A63   A(8,9,11)             164.481          estimate D2E/DX2                !
 ! A64   A(8,9,12)             136.9568         estimate D2E/DX2                !
 ! A65   A(8,9,26)              75.562          estimate D2E/DX2                !
 ! A66   A(8,9,27)             121.5557         estimate D2E/DX2                !
 ! A67   A(10,9,11)             83.2292         estimate D2E/DX2                !
 ! A68   A(10,9,12)            136.4282         estimate D2E/DX2                !
 ! A69   A(10,9,26)             82.7379         estimate D2E/DX2                !
 ! A70   A(10,9,27)             86.9851         estimate D2E/DX2                !
 ! A71   A(11,9,26)             96.1318         estimate D2E/DX2                !
 ! A72   A(12,9,26)             90.4093         estimate D2E/DX2                !
 ! A73   A(9,10,13)             97.2476         estimate D2E/DX2                !
 ! A74   A(9,10,24)             99.77           estimate D2E/DX2                !
 ! A75   A(13,10,24)            97.827          estimate D2E/DX2                !
 ! A76   A(1,12,11)             90.5864         estimate D2E/DX2                !
 ! A77   A(1,12,14)            100.0123         estimate D2E/DX2                !
 ! A78   A(1,12,15)            152.7757         estimate D2E/DX2                !
 ! A79   A(1,12,21)             62.7958         estimate D2E/DX2                !
 ! A80   A(1,12,27)            119.2717         estimate D2E/DX2                !
 ! A81   A(2,12,5)             104.3906         estimate D2E/DX2                !
 ! A82   A(2,12,11)            111.5363         estimate D2E/DX2                !
 ! A83   A(2,12,14)             91.9929         estimate D2E/DX2                !
 ! A84   A(2,12,15)            100.9364         estimate D2E/DX2                !
 ! A85   A(2,12,21)             88.8326         estimate D2E/DX2                !
 ! A86   A(2,12,27)             94.0807         estimate D2E/DX2                !
 ! A87   A(5,12,9)              89.8216         estimate D2E/DX2                !
 ! A88   A(5,12,11)             78.7573         estimate D2E/DX2                !
 ! A89   A(5,12,14)             90.1216         estimate D2E/DX2                !
 ! A90   A(5,12,15)            153.589          estimate D2E/DX2                !
 ! A91   A(5,12,27)            131.7536         estimate D2E/DX2                !
 ! A92   A(9,12,14)            147.4115         estimate D2E/DX2                !
 ! A93   A(9,12,15)            110.5562         estimate D2E/DX2                !
 ! A94   A(9,12,21)            117.9861         estimate D2E/DX2                !
 ! A95   A(11,12,14)           155.7565         estimate D2E/DX2                !
 ! A96   A(11,12,15)            98.8509         estimate D2E/DX2                !
 ! A97   A(11,12,21)           125.8925         estimate D2E/DX2                !
 ! A98   A(14,12,15)            81.5809         estimate D2E/DX2                !
 ! A99   A(14,12,27)           133.9541         estimate D2E/DX2                !
 ! A100  A(15,12,21)           126.8231         estimate D2E/DX2                !
 ! A101  A(7,13,8)              95.3526         estimate D2E/DX2                !
 ! A102  A(7,13,10)             85.8528         estimate D2E/DX2                !
 ! A103  A(7,13,16)            105.543          estimate D2E/DX2                !
 ! A104  A(7,13,36)            138.0759         estimate D2E/DX2                !
 ! A105  A(7,13,37)             86.6232         estimate D2E/DX2                !
 ! A106  A(7,13,39)            101.6577         estimate D2E/DX2                !
 ! A107  A(8,13,10)             82.1942         estimate D2E/DX2                !
 ! A108  A(8,13,16)             87.2095         estimate D2E/DX2                !
 ! A109  A(8,13,17)             76.5134         estimate D2E/DX2                !
 ! A110  A(8,13,18)             86.5488         estimate D2E/DX2                !
 ! A111  A(8,13,36)            123.4568         estimate D2E/DX2                !
 ! A112  A(8,13,37)            161.3643         estimate D2E/DX2                !
 ! A113  A(8,13,39)            141.2564         estimate D2E/DX2                !
 ! A114  A(10,13,17)            82.0435         estimate D2E/DX2                !
 ! A115  A(10,13,18)           135.6649         estimate D2E/DX2                !
 ! A116  A(10,13,36)            84.599          estimate D2E/DX2                !
 ! A117  A(10,13,37)            79.4653         estimate D2E/DX2                !
 ! A118  A(10,13,39)           133.1487         estimate D2E/DX2                !
 ! A119  A(16,13,17)            85.4081         estimate D2E/DX2                !
 ! A120  A(16,13,36)            92.6889         estimate D2E/DX2                !
 ! A121  A(16,13,37)           110.1659         estimate D2E/DX2                !
 ! A122  A(17,13,18)           136.25           estimate D2E/DX2                !
 ! A123  A(17,13,37)            97.5909         estimate D2E/DX2                !
 ! A124  A(17,13,39)            91.4757         estimate D2E/DX2                !
 ! A125  A(18,13,36)           135.5248         estimate D2E/DX2                !
 ! A126  A(18,13,37)           108.989          estimate D2E/DX2                !
 ! A127  A(18,13,39)            77.0085         estimate D2E/DX2                !
 ! A128  A(18,16,39)            92.3993         estimate D2E/DX2                !
 ! A129  A(13,17,24)            96.7359         estimate D2E/DX2                !
 ! A130  A(24,17,36)            81.0042         estimate D2E/DX2                !
 ! A131  A(6,18,13)             67.0647         estimate D2E/DX2                !
 ! A132  A(6,18,16)            104.7512         estimate D2E/DX2                !
 ! A133  A(6,18,19)            141.6681         estimate D2E/DX2                !
 ! A134  A(7,18,16)            113.4044         estimate D2E/DX2                !
 ! A135  A(7,18,19)            103.8457         estimate D2E/DX2                !
 ! A136  A(7,18,20)            104.7591         estimate D2E/DX2                !
 ! A137  A(13,18,19)           131.7596         estimate D2E/DX2                !
 ! A138  A(13,18,20)           112.3526         estimate D2E/DX2                !
 ! A139  A(16,18,19)           113.258          estimate D2E/DX2                !
 ! A140  A(16,18,20)           105.9651         estimate D2E/DX2                !
 ! A141  A(19,18,20)           115.4957         estimate D2E/DX2                !
 ! A142  A(18,19,42)           111.5049         estimate D2E/DX2                !
 ! A143  A(5,21,14)            106.0234         estimate D2E/DX2                !
 ! A144  A(5,21,22)            113.5893         estimate D2E/DX2                !
 ! A145  A(5,21,23)            102.459          estimate D2E/DX2                !
 ! A146  A(12,21,22)           147.1693         estimate D2E/DX2                !
 ! A147  A(12,21,23)           100.8902         estimate D2E/DX2                !
 ! A148  A(14,21,22)           112.0854         estimate D2E/DX2                !
 ! A149  A(14,21,23)           110.2291         estimate D2E/DX2                !
 ! A150  A(22,21,23)           111.9062         estimate D2E/DX2                !
 ! A151  A(1,23,21)             80.748          estimate D2E/DX2                !
 ! A152  A(10,24,17)            81.2972         estimate D2E/DX2                !
 ! A153  A(10,24,25)            85.1063         estimate D2E/DX2                !
 ! A154  A(10,24,26)            80.774          estimate D2E/DX2                !
 ! A155  A(10,24,28)            84.6674         estimate D2E/DX2                !
 ! A156  A(10,24,30)           133.7888         estimate D2E/DX2                !
 ! A157  A(10,24,33)           135.1495         estimate D2E/DX2                !
 ! A158  A(17,24,25)            96.8944         estimate D2E/DX2                !
 ! A159  A(17,24,26)            76.3579         estimate D2E/DX2                !
 ! A160  A(17,24,28)           162.7708         estimate D2E/DX2                !
 ! A161  A(17,24,30)           138.0412         estimate D2E/DX2                !
 ! A162  A(17,24,32)            88.2592         estimate D2E/DX2                !
 ! A163  A(17,24,33)            90.0235         estimate D2E/DX2                !
 ! A164  A(25,24,28)            91.7918         estimate D2E/DX2                !
 ! A165  A(25,24,30)           106.8267         estimate D2E/DX2                !
 ! A166  A(25,24,32)           105.0129         estimate D2E/DX2                !
 ! A167  A(26,24,28)            91.6055         estimate D2E/DX2                !
 ! A168  A(26,24,30)            86.5337         estimate D2E/DX2                !
 ! A169  A(26,24,32)            88.2234         estimate D2E/DX2                !
 ! A170  A(26,24,33)           139.6462         estimate D2E/DX2                !
 ! A171  A(28,24,32)           103.8617         estimate D2E/DX2                !
 ! A172  A(28,24,33)           107.0163         estimate D2E/DX2                !
 ! A173  A(30,24,33)            78.6576         estimate D2E/DX2                !
 ! A174  A(24,25,36)            78.7051         estimate D2E/DX2                !
 ! A175  A(33,25,36)            80.1893         estimate D2E/DX2                !
 ! A176  A(9,26,24)             94.9549         estimate D2E/DX2                !
 ! A177  A(24,26,27)            84.2957         estimate D2E/DX2                !
 ! A178  A(9,27,15)            103.8784         estimate D2E/DX2                !
 ! A179  A(9,27,28)            100.5972         estimate D2E/DX2                !
 ! A180  A(9,27,29)            152.7524         estimate D2E/DX2                !
 ! A181  A(11,27,15)            99.5169         estimate D2E/DX2                !
 ! A182  A(11,27,26)           108.6141         estimate D2E/DX2                !
 ! A183  A(11,27,28)            80.9338         estimate D2E/DX2                !
 ! A184  A(11,27,29)           154.8487         estimate D2E/DX2                !
 ! A185  A(12,27,26)            96.9978         estimate D2E/DX2                !
 ! A186  A(12,27,28)           134.7129         estimate D2E/DX2                !
 ! A187  A(12,27,29)           131.8629         estimate D2E/DX2                !
 ! A188  A(15,27,26)           107.4806         estimate D2E/DX2                !
 ! A189  A(15,27,28)           149.0918         estimate D2E/DX2                !
 ! A190  A(15,27,29)            79.6645         estimate D2E/DX2                !
 ! A191  A(26,27,28)           101.4623         estimate D2E/DX2                !
 ! A192  A(26,27,29)            95.3851         estimate D2E/DX2                !
 ! A193  A(28,27,29)            87.1583         estimate D2E/DX2                !
 ! A194  A(24,28,27)            82.6139         estimate D2E/DX2                !
 ! A195  A(27,28,30)            81.4592         estimate D2E/DX2                !
 ! A196  A(27,29,30)            81.9052         estimate D2E/DX2                !
 ! A197  A(24,30,29)           111.3247         estimate D2E/DX2                !
 ! A198  A(24,30,31)           133.8976         estimate D2E/DX2                !
 ! A199  A(28,30,29)           101.3202         estimate D2E/DX2                !
 ! A200  A(28,30,31)           109.7233         estimate D2E/DX2                !
 ! A201  A(28,30,32)           110.6818         estimate D2E/DX2                !
 ! A202  A(29,30,31)           114.5117         estimate D2E/DX2                !
 ! A203  A(29,30,32)           106.6647         estimate D2E/DX2                !
 ! A204  A(31,30,32)           113.2817         estimate D2E/DX2                !
 ! A205  A(30,32,33)            97.6865         estimate D2E/DX2                !
 ! A206  A(24,33,34)           134.7976         estimate D2E/DX2                !
 ! A207  A(24,33,35)           109.6938         estimate D2E/DX2                !
 ! A208  A(25,33,32)           110.5202         estimate D2E/DX2                !
 ! A209  A(25,33,34)           109.3585         estimate D2E/DX2                !
 ! A210  A(25,33,35)           102.092          estimate D2E/DX2                !
 ! A211  A(32,33,34)           113.7714         estimate D2E/DX2                !
 ! A212  A(32,33,35)           105.1774         estimate D2E/DX2                !
 ! A213  A(34,33,35)           115.2573         estimate D2E/DX2                !
 ! A214  A(33,35,36)            80.2976         estimate D2E/DX2                !
 ! A215  A(13,36,25)           103.5242         estimate D2E/DX2                !
 ! A216  A(13,36,35)           152.4692         estimate D2E/DX2                !
 ! A217  A(13,36,38)           100.4045         estimate D2E/DX2                !
 ! A218  A(17,36,25)           103.3459         estimate D2E/DX2                !
 ! A219  A(17,36,35)            96.8386         estimate D2E/DX2                !
 ! A220  A(17,36,37)           106.3002         estimate D2E/DX2                !
 ! A221  A(17,36,38)           103.634          estimate D2E/DX2                !
 ! A222  A(17,36,39)            97.2226         estimate D2E/DX2                !
 ! A223  A(25,36,35)            88.4394         estimate D2E/DX2                !
 ! A224  A(25,36,37)            81.9804         estimate D2E/DX2                !
 ! A225  A(25,36,38)           150.856          estimate D2E/DX2                !
 ! A226  A(25,36,39)           135.7909         estimate D2E/DX2                !
 ! A227  A(35,36,37)           156.4225         estimate D2E/DX2                !
 ! A228  A(35,36,38)            77.6149         estimate D2E/DX2                !
 ! A229  A(35,36,39)           127.5998         estimate D2E/DX2                !
 ! A230  A(37,36,38)           100.7463         estimate D2E/DX2                !
 ! A231  A(13,39,38)           109.0303         estimate D2E/DX2                !
 ! A232  A(13,39,40)           115.6268         estimate D2E/DX2                !
 ! A233  A(13,39,41)           133.8479         estimate D2E/DX2                !
 ! A234  A(16,39,36)            96.1383         estimate D2E/DX2                !
 ! A235  A(16,39,37)           108.5353         estimate D2E/DX2                !
 ! A236  A(16,39,38)           100.0835         estimate D2E/DX2                !
 ! A237  A(16,39,40)           136.9486         estimate D2E/DX2                !
 ! A238  A(16,39,41)            80.5964         estimate D2E/DX2                !
 ! A239  A(36,39,40)           117.8004         estimate D2E/DX2                !
 ! A240  A(36,39,41)           143.2266         estimate D2E/DX2                !
 ! A241  A(37,39,38)           103.0451         estimate D2E/DX2                !
 ! A242  A(37,39,40)            76.8732         estimate D2E/DX2                !
 ! A243  A(37,39,41)           162.0876         estimate D2E/DX2                !
 ! A244  A(38,39,40)           120.748          estimate D2E/DX2                !
 ! A245  A(38,39,41)            90.0457         estimate D2E/DX2                !
 ! A246  A(40,39,41)            85.9672         estimate D2E/DX2                !
 ! A247  A(39,40,43)           125.365          estimate D2E/DX2                !
 ! A248  A(39,41,42)            97.2445         estimate D2E/DX2                !
 ! A249  A(19,42,41)           116.6982         estimate D2E/DX2                !
 ! A250  A(19,42,43)           107.1908         estimate D2E/DX2                !
 ! A251  A(19,42,44)           109.1484         estimate D2E/DX2                !
 ! A252  A(41,42,43)           102.1525         estimate D2E/DX2                !
 ! A253  A(41,42,44)           114.1791         estimate D2E/DX2                !
 ! A254  A(43,42,44)           106.514          estimate D2E/DX2                !
 ! A255  A(40,43,42)            88.6753         estimate D2E/DX2                !
 ! A256  L(4,9,26,2,-1)        191.1832         estimate D2E/DX2                !
 ! A257  L(6,9,27,1,-1)        190.9966         estimate D2E/DX2                !
 ! A258  L(21,12,27,2,-1)      182.9133         estimate D2E/DX2                !
 ! A259  L(7,13,17,8,-1)       171.866          estimate D2E/DX2                !
 ! A260  L(10,13,16,7,-1)      191.3959         estimate D2E/DX2                !
 ! A261  L(10,24,32,17,-1)     169.5564         estimate D2E/DX2                !
 ! A262  L(25,24,26,10,-1)     165.8803         estimate D2E/DX2                !
 ! A263  L(4,9,26,2,-2)        187.8857         estimate D2E/DX2                !
 ! A264  L(6,9,27,1,-2)        186.9216         estimate D2E/DX2                !
 ! A265  L(21,12,27,2,-2)      179.8643         estimate D2E/DX2                !
 ! A266  L(7,13,17,8,-2)       168.6959         estimate D2E/DX2                !
 ! A267  L(10,13,16,7,-2)      170.331          estimate D2E/DX2                !
 ! A268  L(10,24,32,17,-2)     171.1384         estimate D2E/DX2                !
 ! A269  L(25,24,26,10,-2)     184.7672         estimate D2E/DX2                !
 ! D1    D(2,1,3,6)             87.0506         estimate D2E/DX2                !
 ! D2    D(4,1,3,6)            -30.0185         estimate D2E/DX2                !
 ! D3    D(5,1,3,6)           -112.2868         estimate D2E/DX2                !
 ! D4    D(9,1,3,6)             27.4629         estimate D2E/DX2                !
 ! D5    D(12,1,3,6)            84.0039         estimate D2E/DX2                !
 ! D6    D(23,1,3,6)           175.1281         estimate D2E/DX2                !
 ! D7    D(2,1,4,6)            -70.9801         estimate D2E/DX2                !
 ! D8    D(3,1,4,6)             29.8627         estimate D2E/DX2                !
 ! D9    D(5,1,4,6)           -177.1827         estimate D2E/DX2                !
 ! D10   D(12,1,4,6)          -122.8044         estimate D2E/DX2                !
 ! D11   D(23,1,4,6)           106.8863         estimate D2E/DX2                !
 ! D12   D(2,1,5,21)            69.5142         estimate D2E/DX2                !
 ! D13   D(3,1,5,21)           -90.5651         estimate D2E/DX2                !
 ! D14   D(4,1,5,21)          -174.1028         estimate D2E/DX2                !
 ! D15   D(9,1,5,21)           127.895          estimate D2E/DX2                !
 ! D16   D(23,1,5,21)          -18.9765         estimate D2E/DX2                !
 ! D17   D(3,1,9,6)            -23.2528         estimate D2E/DX2                !
 ! D18   D(3,1,9,8)             12.8407         estimate D2E/DX2                !
 ! D19   D(3,1,9,10)           -74.9717         estimate D2E/DX2                !
 ! D20   D(3,1,9,11)          -163.109          estimate D2E/DX2                !
 ! D21   D(3,1,9,26)            89.9348         estimate D2E/DX2                !
 ! D22   D(3,1,9,27)           149.8255         estimate D2E/DX2                !
 ! D23   D(5,1,9,6)            139.4893         estimate D2E/DX2                !
 ! D24   D(5,1,9,8)            175.5828         estimate D2E/DX2                !
 ! D25   D(5,1,9,10)            87.7704         estimate D2E/DX2                !
 ! D26   D(5,1,9,11)            -0.3669         estimate D2E/DX2                !
 ! D27   D(5,1,9,26)          -107.3231         estimate D2E/DX2                !
 ! D28   D(5,1,9,27)           -47.4324         estimate D2E/DX2                !
 ! D29   D(23,1,9,6)          -126.9974         estimate D2E/DX2                !
 ! D30   D(23,1,9,8)           -90.9039         estimate D2E/DX2                !
 ! D31   D(23,1,9,10)         -178.7162         estimate D2E/DX2                !
 ! D32   D(23,1,9,11)           93.1464         estimate D2E/DX2                !
 ! D33   D(23,1,9,26)          -13.8098         estimate D2E/DX2                !
 ! D34   D(23,1,9,27)           46.081          estimate D2E/DX2                !
 ! D35   D(3,1,12,11)         -113.4016         estimate D2E/DX2                !
 ! D36   D(3,1,12,14)           88.5094         estimate D2E/DX2                !
 ! D37   D(3,1,12,15)           -2.5318         estimate D2E/DX2                !
 ! D38   D(3,1,12,21)          115.7578         estimate D2E/DX2                !
 ! D39   D(3,1,12,27)          -66.5773         estimate D2E/DX2                !
 ! D40   D(4,1,12,11)           -1.7838         estimate D2E/DX2                !
 ! D41   D(4,1,12,14)         -159.8728         estimate D2E/DX2                !
 ! D42   D(4,1,12,15)          109.086          estimate D2E/DX2                !
 ! D43   D(4,1,12,21)         -132.6244         estimate D2E/DX2                !
 ! D44   D(4,1,12,27)           45.0405         estimate D2E/DX2                !
 ! D45   D(23,1,12,11)         158.8047         estimate D2E/DX2                !
 ! D46   D(23,1,12,14)           0.7157         estimate D2E/DX2                !
 ! D47   D(23,1,12,15)         -90.3255         estimate D2E/DX2                !
 ! D48   D(23,1,12,21)          27.9641         estimate D2E/DX2                !
 ! D49   D(23,1,12,27)        -154.371          estimate D2E/DX2                !
 ! D50   D(2,1,23,21)          -86.6372         estimate D2E/DX2                !
 ! D51   D(3,1,23,21)          173.9348         estimate D2E/DX2                !
 ! D52   D(4,1,23,21)           95.2721         estimate D2E/DX2                !
 ! D53   D(5,1,23,21)           19.8388         estimate D2E/DX2                !
 ! D54   D(9,1,23,21)          -75.7258         estimate D2E/DX2                !
 ! D55   D(12,1,23,21)         -35.8395         estimate D2E/DX2                !
 ! D56   D(1,2,9,12)           -83.5999         estimate D2E/DX2                !
 ! D57   D(1,3,6,4)             29.4024         estimate D2E/DX2                !
 ! D58   D(1,3,6,7)             96.9405         estimate D2E/DX2                !
 ! D59   D(1,3,6,8)            -77.4555         estimate D2E/DX2                !
 ! D60   D(1,3,6,9)            -22.8121         estimate D2E/DX2                !
 ! D61   D(1,3,6,18)          -179.9684         estimate D2E/DX2                !
 ! D62   D(1,3,6,20)          -171.9642         estimate D2E/DX2                !
 ! D63   D(1,4,6,3)            -29.0473         estimate D2E/DX2                !
 ! D64   D(1,4,6,7)            178.2008         estimate D2E/DX2                !
 ! D65   D(1,4,6,8)             75.9618         estimate D2E/DX2                !
 ! D66   D(1,4,6,18)          -179.6925         estimate D2E/DX2                !
 ! D67   D(1,4,6,20)           -98.8664         estimate D2E/DX2                !
 ! D68   D(1,5,21,14)          -92.6805         estimate D2E/DX2                !
 ! D69   D(1,5,21,22)          143.7973         estimate D2E/DX2                !
 ! D70   D(1,5,21,23)           22.9064         estimate D2E/DX2                !
 ! D71   D(3,6,7,13)          -179.2014         estimate D2E/DX2                !
 ! D72   D(4,6,7,13)          -109.7842         estimate D2E/DX2                !
 ! D73   D(8,6,7,13)            -4.7917         estimate D2E/DX2                !
 ! D74   D(9,6,7,13)           -60.8561         estimate D2E/DX2                !
 ! D75   D(20,6,7,13)           92.8618         estimate D2E/DX2                !
 ! D76   D(3,6,8,13)          -178.2021         estimate D2E/DX2                !
 ! D77   D(4,6,8,13)            88.9819         estimate D2E/DX2                !
 ! D78   D(7,6,8,13)             4.6218         estimate D2E/DX2                !
 ! D79   D(18,6,8,13)          -44.825          estimate D2E/DX2                !
 ! D80   D(20,6,8,13)          -93.0224         estimate D2E/DX2                !
 ! D81   D(3,6,9,1)             21.7244         estimate D2E/DX2                !
 ! D82   D(3,6,9,2)            -26.8889         estimate D2E/DX2                !
 ! D83   D(3,6,9,10)           171.2462         estimate D2E/DX2                !
 ! D84   D(3,6,9,11)            95.7434         estimate D2E/DX2                !
 ! D85   D(3,6,9,12)            15.2905         estimate D2E/DX2                !
 ! D86   D(3,6,9,26)          -109.7728         estimate D2E/DX2                !
 ! D87   D(7,6,9,1)           -132.72           estimate D2E/DX2                !
 ! D88   D(7,6,9,2)            178.6667         estimate D2E/DX2                !
 ! D89   D(7,6,9,10)            16.8018         estimate D2E/DX2                !
 ! D90   D(7,6,9,11)           -58.701          estimate D2E/DX2                !
 ! D91   D(7,6,9,12)          -139.1539         estimate D2E/DX2                !
 ! D92   D(7,6,9,26)            95.7828         estimate D2E/DX2                !
 ! D93   D(18,6,9,1)           179.7303         estimate D2E/DX2                !
 ! D94   D(18,6,9,2)           131.1171         estimate D2E/DX2                !
 ! D95   D(18,6,9,10)          -30.7479         estimate D2E/DX2                !
 ! D96   D(18,6,9,11)         -106.2506         estimate D2E/DX2                !
 ! D97   D(18,6,9,12)          173.2964         estimate D2E/DX2                !
 ! D98   D(18,6,9,26)           48.2331         estimate D2E/DX2                !
 ! D99   D(20,6,9,1)           106.6612         estimate D2E/DX2                !
 ! D100  D(20,6,9,2)            58.0479         estimate D2E/DX2                !
 ! D101  D(20,6,9,10)         -103.817          estimate D2E/DX2                !
 ! D102  D(20,6,9,11)         -179.3198         estimate D2E/DX2                !
 ! D103  D(20,6,9,12)          100.2273         estimate D2E/DX2                !
 ! D104  D(20,6,9,26)          -24.836          estimate D2E/DX2                !
 ! D105  D(3,6,18,13)          153.4076         estimate D2E/DX2                !
 ! D106  D(3,6,18,16)          110.0468         estimate D2E/DX2                !
 ! D107  D(3,6,18,19)          -77.481          estimate D2E/DX2                !
 ! D108  D(4,6,18,13)          -67.7578         estimate D2E/DX2                !
 ! D109  D(4,6,18,16)         -111.1186         estimate D2E/DX2                !
 ! D110  D(4,6,18,19)           61.3536         estimate D2E/DX2                !
 ! D111  D(8,6,18,13)           44.1102         estimate D2E/DX2                !
 ! D112  D(8,6,18,16)            0.7495         estimate D2E/DX2                !
 ! D113  D(8,6,18,19)          173.2217         estimate D2E/DX2                !
 ! D114  D(9,6,18,13)            3.5236         estimate D2E/DX2                !
 ! D115  D(9,6,18,16)          -39.8371         estimate D2E/DX2                !
 ! D116  D(9,6,18,19)          132.6351         estimate D2E/DX2                !
 ! D117  D(6,7,13,8)             4.1496         estimate D2E/DX2                !
 ! D118  D(6,7,13,10)           85.8956         estimate D2E/DX2                !
 ! D119  D(6,7,13,16)          -84.4354         estimate D2E/DX2                !
 ! D120  D(6,7,13,36)          163.0696         estimate D2E/DX2                !
 ! D121  D(6,7,13,37)          165.5636         estimate D2E/DX2                !
 ! D122  D(6,7,13,39)         -140.8554         estimate D2E/DX2                !
 ! D123  D(13,8,9,1)          -127.1329         estimate D2E/DX2                !
 ! D124  D(13,8,9,2)           179.2434         estimate D2E/DX2                !
 ! D125  D(13,8,9,4)           -71.5361         estimate D2E/DX2                !
 ! D126  D(13,8,9,10)           12.3594         estimate D2E/DX2                !
 ! D127  D(13,8,9,11)           37.6874         estimate D2E/DX2                !
 ! D128  D(13,8,9,12)          171.3341         estimate D2E/DX2                !
 ! D129  D(13,8,9,26)           96.6935         estimate D2E/DX2                !
 ! D130  D(13,8,9,27)           94.2763         estimate D2E/DX2                !
 ! D131  D(6,8,13,7)            -4.4244         estimate D2E/DX2                !
 ! D132  D(6,8,13,10)          -89.4818         estimate D2E/DX2                !
 ! D133  D(6,8,13,16)          100.9359         estimate D2E/DX2                !
 ! D134  D(6,8,13,17)         -173.1204         estimate D2E/DX2                !
 ! D135  D(6,8,13,18)           47.5333         estimate D2E/DX2                !
 ! D136  D(6,8,13,36)         -167.6838         estimate D2E/DX2                !
 ! D137  D(6,8,13,37)          -99.743          estimate D2E/DX2                !
 ! D138  D(6,8,13,39)          111.7466         estimate D2E/DX2                !
 ! D139  D(9,8,13,7)            72.7561         estimate D2E/DX2                !
 ! D140  D(9,8,13,10)          -12.3012         estimate D2E/DX2                !
 ! D141  D(9,8,13,16)          178.1164         estimate D2E/DX2                !
 ! D142  D(9,8,13,17)          -95.9398         estimate D2E/DX2                !
 ! D143  D(9,8,13,18)          124.7138         estimate D2E/DX2                !
 ! D144  D(9,8,13,36)          -90.5033         estimate D2E/DX2                !
 ! D145  D(9,8,13,37)          -22.5625         estimate D2E/DX2                !
 ! D146  D(9,8,13,39)         -171.0728         estimate D2E/DX2                !
 ! D147  D(1,9,10,13)           80.6975         estimate D2E/DX2                !
 ! D148  D(1,9,10,24)          179.9739         estimate D2E/DX2                !
 ! D149  D(2,9,10,13)          -59.2433         estimate D2E/DX2                !
 ! D150  D(2,9,10,24)           40.0331         estimate D2E/DX2                !
 ! D151  D(4,9,10,13)           85.4997         estimate D2E/DX2                !
 ! D152  D(4,9,10,24)         -175.2239         estimate D2E/DX2                !
 ! D153  D(6,9,10,13)           34.4353         estimate D2E/DX2                !
 ! D154  D(6,9,10,24)          133.7117         estimate D2E/DX2                !
 ! D155  D(8,9,10,13)          -12.6148         estimate D2E/DX2                !
 ! D156  D(8,9,10,24)           86.6616         estimate D2E/DX2                !
 ! D157  D(11,9,10,13)         174.0041         estimate D2E/DX2                !
 ! D158  D(11,9,10,24)         -86.7195         estimate D2E/DX2                !
 ! D159  D(12,9,10,13)        -171.8038         estimate D2E/DX2                !
 ! D160  D(12,9,10,24)         -72.5274         estimate D2E/DX2                !
 ! D161  D(26,9,10,13)         -88.898          estimate D2E/DX2                !
 ! D162  D(26,9,10,24)          10.3784         estimate D2E/DX2                !
 ! D163  D(27,9,10,13)        -134.9605         estimate D2E/DX2                !
 ! D164  D(27,9,10,24)         -35.6842         estimate D2E/DX2                !
 ! D165  D(4,9,12,5)             2.0181         estimate D2E/DX2                !
 ! D166  D(4,9,12,14)          -87.9285         estimate D2E/DX2                !
 ! D167  D(4,9,12,15)          164.8354         estimate D2E/DX2                !
 ! D168  D(4,9,12,21)          -37.6248         estimate D2E/DX2                !
 ! D169  D(6,9,12,5)            50.1273         estimate D2E/DX2                !
 ! D170  D(6,9,12,14)          -39.8193         estimate D2E/DX2                !
 ! D171  D(6,9,12,15)         -147.0554         estimate D2E/DX2                !
 ! D172  D(6,9,12,21)           10.4844         estimate D2E/DX2                !
 ! D173  D(8,9,12,5)           117.3637         estimate D2E/DX2                !
 ! D174  D(8,9,12,14)           27.417          estimate D2E/DX2                !
 ! D175  D(8,9,12,15)          -79.8191         estimate D2E/DX2                !
 ! D176  D(8,9,12,21)           77.7207         estimate D2E/DX2                !
 ! D177  D(10,9,12,5)          -93.7233         estimate D2E/DX2                !
 ! D178  D(10,9,12,14)         176.33           estimate D2E/DX2                !
 ! D179  D(10,9,12,15)          69.0939         estimate D2E/DX2                !
 ! D180  D(10,9,12,21)        -133.3663         estimate D2E/DX2                !
 ! D181  D(26,9,12,5)         -173.5927         estimate D2E/DX2                !
 ! D182  D(26,9,12,14)          96.4606         estimate D2E/DX2                !
 ! D183  D(26,9,12,15)         -10.7755         estimate D2E/DX2                !
 ! D184  D(26,9,12,21)         146.7643         estimate D2E/DX2                !
 ! D185  D(1,9,26,24)          179.8217         estimate D2E/DX2                !
 ! D186  D(2,9,26,24)          179.0237         estimate D2E/DX2                !
 ! D187  D(6,9,26,24)          -90.8294         estimate D2E/DX2                !
 ! D188  D(8,9,26,24)          -94.2422         estimate D2E/DX2                !
 ! D189  D(10,9,26,24)          -9.9231         estimate D2E/DX2                !
 ! D190  D(11,9,26,24)          72.4209         estimate D2E/DX2                !
 ! D191  D(12,9,26,24)         126.9196         estimate D2E/DX2                !
 ! D192  D(1,9,27,15)          -22.146          estimate D2E/DX2                !
 ! D193  D(1,9,27,28)          138.8249         estimate D2E/DX2                !
 ! D194  D(1,9,27,29)         -116.5116         estimate D2E/DX2                !
 ! D195  D(2,9,27,15)           22.4553         estimate D2E/DX2                !
 ! D196  D(2,9,27,28)         -176.5738         estimate D2E/DX2                !
 ! D197  D(2,9,27,29)          -71.9103         estimate D2E/DX2                !
 ! D198  D(4,9,27,15)          -96.295          estimate D2E/DX2                !
 ! D199  D(4,9,27,28)           64.676          estimate D2E/DX2                !
 ! D200  D(4,9,27,29)          169.3394         estimate D2E/DX2                !
 ! D201  D(8,9,27,15)          105.3514         estimate D2E/DX2                !
 ! D202  D(8,9,27,28)          -93.6777         estimate D2E/DX2                !
 ! D203  D(8,9,27,29)           10.9858         estimate D2E/DX2                !
 ! D204  D(10,9,27,15)        -175.0843         estimate D2E/DX2                !
 ! D205  D(10,9,27,28)         -14.1134         estimate D2E/DX2                !
 ! D206  D(10,9,27,29)          90.5501         estimate D2E/DX2                !
 ! D207  D(9,10,13,7)          -83.4196         estimate D2E/DX2                !
 ! D208  D(9,10,13,8)           12.5698         estimate D2E/DX2                !
 ! D209  D(9,10,13,17)          89.9473         estimate D2E/DX2                !
 ! D210  D(9,10,13,18)         -64.2951         estimate D2E/DX2                !
 ! D211  D(9,10,13,36)         137.4531         estimate D2E/DX2                !
 ! D212  D(9,10,13,37)        -170.7494         estimate D2E/DX2                !
 ! D213  D(9,10,13,39)         174.4745         estimate D2E/DX2                !
 ! D214  D(24,10,13,7)         175.6189         estimate D2E/DX2                !
 ! D215  D(24,10,13,8)         -88.3917         estimate D2E/DX2                !
 ! D216  D(24,10,13,17)        -11.0143         estimate D2E/DX2                !
 ! D217  D(24,10,13,18)       -165.2566         estimate D2E/DX2                !
 ! D218  D(24,10,13,36)         36.4916         estimate D2E/DX2                !
 ! D219  D(24,10,13,37)         88.2891         estimate D2E/DX2                !
 ! D220  D(24,10,13,39)         73.513          estimate D2E/DX2                !
 ! D221  D(9,10,24,17)         -87.7334         estimate D2E/DX2                !
 ! D222  D(9,10,24,25)         174.5087         estimate D2E/DX2                !
 ! D223  D(9,10,24,26)         -10.2585         estimate D2E/DX2                !
 ! D224  D(9,10,24,28)          82.2444         estimate D2E/DX2                !
 ! D225  D(9,10,24,30)          65.8222         estimate D2E/DX2                !
 ! D226  D(9,10,24,33)        -168.9161         estimate D2E/DX2                !
 ! D227  D(13,10,24,17)         11.0609         estimate D2E/DX2                !
 ! D228  D(13,10,24,25)        -86.697          estimate D2E/DX2                !
 ! D229  D(13,10,24,26)         88.5358         estimate D2E/DX2                !
 ! D230  D(13,10,24,28)       -178.9613         estimate D2E/DX2                !
 ! D231  D(13,10,24,30)        164.6165         estimate D2E/DX2                !
 ! D232  D(13,10,24,33)        -70.1218         estimate D2E/DX2                !
 ! D233  D(9,11,12,27)         -81.7819         estimate D2E/DX2                !
 ! D234  D(1,12,21,22)         143.6539         estimate D2E/DX2                !
 ! D235  D(1,12,21,23)         -33.7303         estimate D2E/DX2                !
 ! D236  D(2,12,21,22)        -169.375          estimate D2E/DX2                !
 ! D237  D(2,12,21,23)          13.2408         estimate D2E/DX2                !
 ! D238  D(9,12,21,22)         139.9826         estimate D2E/DX2                !
 ! D239  D(9,12,21,23)         -37.4016         estimate D2E/DX2                !
 ! D240  D(11,12,21,22)         74.618          estimate D2E/DX2                !
 ! D241  D(11,12,21,23)       -102.7662         estimate D2E/DX2                !
 ! D242  D(15,12,21,22)        -66.5606         estimate D2E/DX2                !
 ! D243  D(15,12,21,23)        116.0552         estimate D2E/DX2                !
 ! D244  D(1,12,27,26)          42.0255         estimate D2E/DX2                !
 ! D245  D(1,12,27,28)         -71.7565         estimate D2E/DX2                !
 ! D246  D(1,12,27,29)         145.7322         estimate D2E/DX2                !
 ! D247  D(2,12,27,26)          -6.0568         estimate D2E/DX2                !
 ! D248  D(2,12,27,28)        -119.8389         estimate D2E/DX2                !
 ! D249  D(2,12,27,29)          97.6498         estimate D2E/DX2                !
 ! D250  D(5,12,27,26)         107.3761         estimate D2E/DX2                !
 ! D251  D(5,12,27,28)          -6.406          estimate D2E/DX2                !
 ! D252  D(5,12,27,29)        -148.9173         estimate D2E/DX2                !
 ! D253  D(14,12,27,26)       -102.7881         estimate D2E/DX2                !
 ! D254  D(14,12,27,28)        143.4298         estimate D2E/DX2                !
 ! D255  D(14,12,27,29)          0.9186         estimate D2E/DX2                !
 ! D256  D(8,13,17,24)          94.8319         estimate D2E/DX2                !
 ! D257  D(10,13,17,24)         11.0033         estimate D2E/DX2                !
 ! D258  D(16,13,17,24)       -176.9425         estimate D2E/DX2                !
 ! D259  D(18,13,17,24)        164.9518         estimate D2E/DX2                !
 ! D260  D(37,13,17,24)        -67.175          estimate D2E/DX2                !
 ! D261  D(39,13,17,24)       -122.4032         estimate D2E/DX2                !
 ! D262  D(8,13,18,6)          -38.3567         estimate D2E/DX2                !
 ! D263  D(8,13,18,19)        -178.1806         estimate D2E/DX2                !
 ! D264  D(8,13,18,20)          -5.8461         estimate D2E/DX2                !
 ! D265  D(10,13,18,6)          36.7858         estimate D2E/DX2                !
 ! D266  D(10,13,18,19)       -103.0381         estimate D2E/DX2                !
 ! D267  D(10,13,18,20)         69.2964         estimate D2E/DX2                !
 ! D268  D(17,13,18,6)        -104.7242         estimate D2E/DX2                !
 ! D269  D(17,13,18,19)        115.4519         estimate D2E/DX2                !
 ! D270  D(17,13,18,20)        -72.2136         estimate D2E/DX2                !
 ! D271  D(36,13,18,6)        -174.9851         estimate D2E/DX2                !
 ! D272  D(36,13,18,19)         45.191          estimate D2E/DX2                !
 ! D273  D(36,13,18,20)       -142.4745         estimate D2E/DX2                !
 ! D274  D(37,13,18,6)         131.117          estimate D2E/DX2                !
 ! D275  D(37,13,18,19)         -8.7068         estimate D2E/DX2                !
 ! D276  D(37,13,18,20)        163.6276         estimate D2E/DX2                !
 ! D277  D(39,13,18,6)         176.9757         estimate D2E/DX2                !
 ! D278  D(39,13,18,19)         37.1518         estimate D2E/DX2                !
 ! D279  D(39,13,18,20)       -150.5137         estimate D2E/DX2                !
 ! D280  D(7,13,36,25)         -64.5759         estimate D2E/DX2                !
 ! D281  D(7,13,36,35)        -178.2065         estimate D2E/DX2                !
 ! D282  D(7,13,36,38)          98.6578         estimate D2E/DX2                !
 ! D283  D(8,13,36,25)          90.0058         estimate D2E/DX2                !
 ! D284  D(8,13,36,35)         -23.6248         estimate D2E/DX2                !
 ! D285  D(8,13,36,38)        -106.7605         estimate D2E/DX2                !
 ! D286  D(10,13,36,25)         13.067          estimate D2E/DX2                !
 ! D287  D(10,13,36,35)       -100.5636         estimate D2E/DX2                !
 ! D288  D(10,13,36,38)        176.3006         estimate D2E/DX2                !
 ! D289  D(16,13,36,25)        178.4367         estimate D2E/DX2                !
 ! D290  D(16,13,36,35)         64.8061         estimate D2E/DX2                !
 ! D291  D(16,13,36,38)        -18.3297         estimate D2E/DX2                !
 ! D292  D(18,13,36,25)       -145.2418         estimate D2E/DX2                !
 ! D293  D(18,13,36,35)        101.1276         estimate D2E/DX2                !
 ! D294  D(18,13,36,38)         17.9918         estimate D2E/DX2                !
 ! D295  D(7,13,39,38)        -169.838          estimate D2E/DX2                !
 ! D296  D(7,13,39,40)         -29.9059         estimate D2E/DX2                !
 ! D297  D(7,13,39,41)          80.742          estimate D2E/DX2                !
 ! D298  D(8,13,39,38)          75.9995         estimate D2E/DX2                !
 ! D299  D(8,13,39,40)        -144.0684         estimate D2E/DX2                !
 ! D300  D(8,13,39,41)         -33.4205         estimate D2E/DX2                !
 ! D301  D(10,13,39,38)        -74.5485         estimate D2E/DX2                !
 ! D302  D(10,13,39,40)         65.3836         estimate D2E/DX2                !
 ! D303  D(10,13,39,41)        176.0316         estimate D2E/DX2                !
 ! D304  D(17,13,39,38)          5.9171         estimate D2E/DX2                !
 ! D305  D(17,13,39,40)        145.8492         estimate D2E/DX2                !
 ! D306  D(17,13,39,41)       -103.5028         estimate D2E/DX2                !
 ! D307  D(18,13,39,38)        143.2786         estimate D2E/DX2                !
 ! D308  D(18,13,39,40)        -76.7893         estimate D2E/DX2                !
 ! D309  D(18,13,39,41)         33.8587         estimate D2E/DX2                !
 ! D310  D(39,16,18,6)         116.5837         estimate D2E/DX2                !
 ! D311  D(39,16,18,7)          59.6826         estimate D2E/DX2                !
 ! D312  D(39,16,18,19)        -58.3424         estimate D2E/DX2                !
 ! D313  D(39,16,18,20)        174.0483         estimate D2E/DX2                !
 ! D314  D(18,16,39,36)       -119.1627         estimate D2E/DX2                !
 ! D315  D(18,16,39,37)        -66.2749         estimate D2E/DX2                !
 ! D316  D(18,16,39,38)       -173.8182         estimate D2E/DX2                !
 ! D317  D(18,16,39,40)         24.1844         estimate D2E/DX2                !
 ! D318  D(18,16,39,41)         97.8225         estimate D2E/DX2                !
 ! D319  D(13,17,24,10)        -10.8306         estimate D2E/DX2                !
 ! D320  D(13,17,24,25)         73.117          estimate D2E/DX2                !
 ! D321  D(13,17,24,26)        -93.3753         estimate D2E/DX2                !
 ! D322  D(13,17,24,28)        -46.6344         estimate D2E/DX2                !
 ! D323  D(13,17,24,30)       -162.091          estimate D2E/DX2                !
 ! D324  D(13,17,24,32)        178.031          estimate D2E/DX2                !
 ! D325  D(13,17,24,33)        124.9886         estimate D2E/DX2                !
 ! D326  D(36,17,24,10)        -85.6843         estimate D2E/DX2                !
 ! D327  D(36,17,24,25)         -1.7366         estimate D2E/DX2                !
 ! D328  D(36,17,24,26)       -168.2289         estimate D2E/DX2                !
 ! D329  D(36,17,24,28)       -121.488          estimate D2E/DX2                !
 ! D330  D(36,17,24,30)        123.0554         estimate D2E/DX2                !
 ! D331  D(36,17,24,32)        103.1774         estimate D2E/DX2                !
 ! D332  D(36,17,24,33)         50.135          estimate D2E/DX2                !
 ! D333  D(24,17,36,25)          1.7232         estimate D2E/DX2                !
 ! D334  D(24,17,36,35)        -88.2917         estimate D2E/DX2                !
 ! D335  D(24,17,36,37)         87.1337         estimate D2E/DX2                !
 ! D336  D(24,17,36,38)       -167.1525         estimate D2E/DX2                !
 ! D337  D(24,17,36,39)        142.3159         estimate D2E/DX2                !
 ! D338  D(6,18,19,42)        -162.2012         estimate D2E/DX2                !
 ! D339  D(7,18,19,42)        -113.5783         estimate D2E/DX2                !
 ! D340  D(13,18,19,42)        -55.5272         estimate D2E/DX2                !
 ! D341  D(16,18,19,42)          9.8727         estimate D2E/DX2                !
 ! D342  D(20,18,19,42)        132.3284         estimate D2E/DX2                !
 ! D343  D(18,19,42,41)         -6.7241         estimate D2E/DX2                !
 ! D344  D(18,19,42,43)        106.9944         estimate D2E/DX2                !
 ! D345  D(18,19,42,44)       -138.0198         estimate D2E/DX2                !
 ! D346  D(5,21,23,1)          -22.0082         estimate D2E/DX2                !
 ! D347  D(12,21,23,1)          34.4196         estimate D2E/DX2                !
 ! D348  D(14,21,23,1)          90.4921         estimate D2E/DX2                !
 ! D349  D(22,21,23,1)        -144.0523         estimate D2E/DX2                !
 ! D350  D(10,24,25,36)         82.1748         estimate D2E/DX2                !
 ! D351  D(17,24,25,36)          1.5745         estimate D2E/DX2                !
 ! D352  D(28,24,25,36)        166.6659         estimate D2E/DX2                !
 ! D353  D(30,24,25,36)       -143.4217         estimate D2E/DX2                !
 ! D354  D(32,24,25,36)        -88.4683         estimate D2E/DX2                !
 ! D355  D(10,24,26,9)           9.74           estimate D2E/DX2                !
 ! D356  D(10,24,26,27)         85.4854         estimate D2E/DX2                !
 ! D357  D(17,24,26,9)          92.9448         estimate D2E/DX2                !
 ! D358  D(17,24,26,27)        168.6903         estimate D2E/DX2                !
 ! D359  D(28,24,26,9)         -74.5932         estimate D2E/DX2                !
 ! D360  D(28,24,26,27)          1.1523         estimate D2E/DX2                !
 ! D361  D(30,24,26,9)        -125.6738         estimate D2E/DX2                !
 ! D362  D(30,24,26,27)        -49.9284         estimate D2E/DX2                !
 ! D363  D(32,24,26,9)        -178.4159         estimate D2E/DX2                !
 ! D364  D(32,24,26,27)       -102.6705         estimate D2E/DX2                !
 ! D365  D(33,24,26,9)         166.3865         estimate D2E/DX2                !
 ! D366  D(33,24,26,27)       -117.8681         estimate D2E/DX2                !
 ! D367  D(10,24,28,27)        -81.6016         estimate D2E/DX2                !
 ! D368  D(17,24,28,27)        -46.0956         estimate D2E/DX2                !
 ! D369  D(25,24,28,27)       -166.5163         estimate D2E/DX2                !
 ! D370  D(26,24,28,27)         -1.0237         estimate D2E/DX2                !
 ! D371  D(32,24,28,27)         87.5421         estimate D2E/DX2                !
 ! D372  D(33,24,28,27)        142.6679         estimate D2E/DX2                !
 ! D373  D(10,24,30,29)        -68.0355         estimate D2E/DX2                !
 ! D374  D(10,24,30,31)        105.5376         estimate D2E/DX2                !
 ! D375  D(17,24,30,29)         70.7868         estimate D2E/DX2                !
 ! D376  D(17,24,30,31)       -115.6401         estimate D2E/DX2                !
 ! D377  D(25,24,30,29)       -167.6167         estimate D2E/DX2                !
 ! D378  D(25,24,30,31)          5.9564         estimate D2E/DX2                !
 ! D379  D(26,24,30,29)          5.6706         estimate D2E/DX2                !
 ! D380  D(26,24,30,31)        179.2437         estimate D2E/DX2                !
 ! D381  D(33,24,30,29)        147.9324         estimate D2E/DX2                !
 ! D382  D(33,24,30,31)        -38.4945         estimate D2E/DX2                !
 ! D383  D(10,24,33,34)       -103.7018         estimate D2E/DX2                !
 ! D384  D(10,24,33,35)         70.0541         estimate D2E/DX2                !
 ! D385  D(17,24,33,34)        178.6628         estimate D2E/DX2                !
 ! D386  D(17,24,33,35)         -7.5813         estimate D2E/DX2                !
 ! D387  D(26,24,33,34)        109.9949         estimate D2E/DX2                !
 ! D388  D(26,24,33,35)        -76.2493         estimate D2E/DX2                !
 ! D389  D(28,24,33,34)         -3.9236         estimate D2E/DX2                !
 ! D390  D(28,24,33,35)        169.8322         estimate D2E/DX2                !
 ! D391  D(30,24,33,34)         39.3433         estimate D2E/DX2                !
 ! D392  D(30,24,33,35)       -146.9008         estimate D2E/DX2                !
 ! D393  D(36,25,33,32)         86.8566         estimate D2E/DX2                !
 ! D394  D(36,25,33,34)       -147.15           estimate D2E/DX2                !
 ! D395  D(36,25,33,35)        -24.6171         estimate D2E/DX2                !
 ! D396  D(24,25,36,13)        -60.099          estimate D2E/DX2                !
 ! D397  D(24,25,36,17)         -1.8217         estimate D2E/DX2                !
 ! D398  D(24,25,36,35)         94.8374         estimate D2E/DX2                !
 ! D399  D(24,25,36,37)       -106.7662         estimate D2E/DX2                !
 ! D400  D(24,25,36,38)        155.5341         estimate D2E/DX2                !
 ! D401  D(24,25,36,39)       -117.2379         estimate D2E/DX2                !
 ! D402  D(33,25,36,13)       -134.5441         estimate D2E/DX2                !
 ! D403  D(33,25,36,17)        -76.2668         estimate D2E/DX2                !
 ! D404  D(33,25,36,35)         20.3922         estimate D2E/DX2                !
 ! D405  D(33,25,36,37)        178.7887         estimate D2E/DX2                !
 ! D406  D(33,25,36,38)         81.089          estimate D2E/DX2                !
 ! D407  D(33,25,36,39)        168.317          estimate D2E/DX2                !
 ! D408  D(24,26,27,11)        -85.3364         estimate D2E/DX2                !
 ! D409  D(24,26,27,12)       -139.5844         estimate D2E/DX2                !
 ! D410  D(24,26,27,15)        167.8665         estimate D2E/DX2                !
 ! D411  D(24,26,27,28)         -1.1541         estimate D2E/DX2                !
 ! D412  D(24,26,27,29)         87.0296         estimate D2E/DX2                !
 ! D413  D(9,27,28,24)          59.9961         estimate D2E/DX2                !
 ! D414  D(9,27,28,30)         134.2704         estimate D2E/DX2                !
 ! D415  D(11,27,28,24)        108.5491         estimate D2E/DX2                !
 ! D416  D(11,27,28,30)       -177.1765         estimate D2E/DX2                !
 ! D417  D(12,27,28,24)        113.3102         estimate D2E/DX2                !
 ! D418  D(12,27,28,30)       -172.4154         estimate D2E/DX2                !
 ! D419  D(15,27,28,24)       -158.0444         estimate D2E/DX2                !
 ! D420  D(15,27,28,30)        -83.7701         estimate D2E/DX2                !
 ! D421  D(26,27,28,24)          1.2444         estimate D2E/DX2                !
 ! D422  D(26,27,28,30)         75.5187         estimate D2E/DX2                !
 ! D423  D(29,27,28,24)        -93.6784         estimate D2E/DX2                !
 ! D424  D(29,27,28,30)        -19.404          estimate D2E/DX2                !
 ! D425  D(9,27,29,30)         -87.2481         estimate D2E/DX2                !
 ! D426  D(11,27,29,30)         82.0722         estimate D2E/DX2                !
 ! D427  D(12,27,29,30)        174.8972         estimate D2E/DX2                !
 ! D428  D(15,27,29,30)        172.4747         estimate D2E/DX2                !
 ! D429  D(26,27,29,30)        -80.6973         estimate D2E/DX2                !
 ! D430  D(28,27,29,30)         20.5574         estimate D2E/DX2                !
 ! D431  D(27,28,30,29)         23.43           estimate D2E/DX2                !
 ! D432  D(27,28,30,31)        144.8461         estimate D2E/DX2                !
 ! D433  D(27,28,30,32)        -89.4111         estimate D2E/DX2                !
 ! D434  D(27,29,30,24)         34.3647         estimate D2E/DX2                !
 ! D435  D(27,29,30,28)        -22.5447         estimate D2E/DX2                !
 ! D436  D(27,29,30,31)       -140.5494         estimate D2E/DX2                !
 ! D437  D(27,29,30,32)         93.2979         estimate D2E/DX2                !
 ! D438  D(28,30,32,33)        -62.3478         estimate D2E/DX2                !
 ! D439  D(29,30,32,33)       -171.739          estimate D2E/DX2                !
 ! D440  D(31,30,32,33)         61.3724         estimate D2E/DX2                !
 ! D441  D(30,32,33,25)         61.8462         estimate D2E/DX2                !
 ! D442  D(30,32,33,34)        -61.6309         estimate D2E/DX2                !
 ! D443  D(30,32,33,35)        171.3149         estimate D2E/DX2                !
 ! D444  D(24,33,35,36)        -33.104          estimate D2E/DX2                !
 ! D445  D(25,33,35,36)         23.5822         estimate D2E/DX2                !
 ! D446  D(32,33,35,36)        -91.8577         estimate D2E/DX2                !
 ! D447  D(34,33,35,36)        142.0006         estimate D2E/DX2                !
 ! D448  D(33,35,36,13)         95.4052         estimate D2E/DX2                !
 ! D449  D(33,35,36,17)         81.6699         estimate D2E/DX2                !
 ! D450  D(33,35,36,25)        -21.5861         estimate D2E/DX2                !
 ! D451  D(33,35,36,37)        -87.2967         estimate D2E/DX2                !
 ! D452  D(33,35,36,38)       -175.813          estimate D2E/DX2                !
 ! D453  D(33,35,36,39)       -173.7236         estimate D2E/DX2                !
 ! D454  D(39,36,37,13)        -74.2837         estimate D2E/DX2                !
 ! D455  D(17,36,39,16)          3.7383         estimate D2E/DX2                !
 ! D456  D(17,36,39,40)       -148.8297         estimate D2E/DX2                !
 ! D457  D(17,36,39,41)         86.2339         estimate D2E/DX2                !
 ! D458  D(25,36,39,16)        121.3819         estimate D2E/DX2                !
 ! D459  D(25,36,39,40)        -31.1861         estimate D2E/DX2                !
 ! D460  D(25,36,39,41)       -156.1225         estimate D2E/DX2                !
 ! D461  D(35,36,39,16)       -100.6852         estimate D2E/DX2                !
 ! D462  D(35,36,39,40)        106.7468         estimate D2E/DX2                !
 ! D463  D(35,36,39,41)        -18.1896         estimate D2E/DX2                !
 ! D464  D(13,39,40,43)        126.7796         estimate D2E/DX2                !
 ! D465  D(16,39,40,43)         60.9674         estimate D2E/DX2                !
 ! D466  D(36,39,40,43)       -161.1761         estimate D2E/DX2                !
 ! D467  D(37,39,40,43)        164.1782         estimate D2E/DX2                !
 ! D468  D(38,39,40,43)        -98.2969         estimate D2E/DX2                !
 ! D469  D(41,39,40,43)        -10.6473         estimate D2E/DX2                !
 ! D470  D(13,39,41,42)        -80.5104         estimate D2E/DX2                !
 ! D471  D(16,39,41,42)        -97.2254         estimate D2E/DX2                !
 ! D472  D(36,39,41,42)        175.0983         estimate D2E/DX2                !
 ! D473  D(37,39,41,42)         25.1376         estimate D2E/DX2                !
 ! D474  D(38,39,41,42)        162.5599         estimate D2E/DX2                !
 ! D475  D(40,39,41,42)         41.731          estimate D2E/DX2                !
 ! D476  D(39,40,43,42)        -23.8999         estimate D2E/DX2                !
 ! D477  D(39,41,42,19)         50.8061         estimate D2E/DX2                !
 ! D478  D(39,41,42,43)        -65.7264         estimate D2E/DX2                !
 ! D479  D(39,41,42,44)        179.7284         estimate D2E/DX2                !
 ! D480  D(19,42,43,40)        -70.07           estimate D2E/DX2                !
 ! D481  D(41,42,43,40)         53.1396         estimate D2E/DX2                !
 ! D482  D(44,42,43,40)        173.1958         estimate D2E/DX2                !
 --------------------------------------------------------------------------------
 Trust Radius=3.00D-01 FncErr=1.00D-07 GrdErr=1.00D-06 EigMax=2.50D+02 EigMin=1.00D-04
 Number of steps in this run=    264 maximum allowed number of steps=    264.
 GradGradGradGradGradGradGradGradGradGradGradGradGradGradGradGradGradGrad

                          Input orientation:                          
 ---------------------------------------------------------------------
 Center     Atomic      Atomic             Coordinates (Angstroms)
 Number     Number       Type             X           Y           Z
 ---------------------------------------------------------------------
      1         42           0        0.695582    1.481374   12.490589
      2         16           0        1.741377    3.602807   12.670449
      3         16           0       -1.403686    2.016639   13.395336
      4         16           0       -0.298488    0.961431   10.392002
      5         16           0        2.481543   -0.132446   11.829609
      6         42           0       -1.891270    2.639347   11.120579
      7         16           0       -2.827274    2.128926    8.938379
      8         16           0       -0.888127    4.654887   10.842420
      9         42           0        1.025938    3.056591   10.376856
     10         16           0        0.226129    3.284501    8.026264
     11         16           0        2.826036    1.807270    9.340071
     12         42           0        3.384915    2.282782   11.639832
     13         42           0       -1.957392    4.405378    8.542273
     14         16           0        4.648640    1.988063   13.830969
     15         16           0        5.063559    3.865114   11.281758
     16         16           0       -3.721889    5.932400    9.329748
     17         16           0       -0.526615    6.508718    8.309145
     18         42           0       -4.274285    3.703039    9.880016
     19         16           0       -6.452736    3.035741    9.081387
     20         16           0       -3.960249    3.518376   12.082090
     21         42           0        3.183455    0.308772   13.989548
     22         16           0        4.008760   -1.380201   14.976435
     23         16           0        1.317152    1.008289   14.966030
     24         42           0        1.527912    5.365208    7.325626
     25         16           0        0.601480    4.948005    5.120014
     26         16           0        2.021677    5.410132    9.918105
     27         42           0        3.678064    4.033415    9.402367
     28         16           0        3.375851    3.796081    6.930793
     29         16           0        5.395307    5.902921    8.882870
     30         42           0        4.313147    5.932725    6.961716
     31         16           0        5.545037    6.195402    5.265925
     32         16           0        2.602560    7.606500    7.160739
     33         42           0        1.451886    7.136015    5.104928
     34         16           0        2.642195    7.413660    3.378875
     35         16           0       -0.403526    8.357245    5.183922
     36         42           0       -1.289231    6.146982    6.225847
     37         16           0       -2.235519    3.957845    6.230137
     38         16           0       -3.260490    7.483202    6.109025
     39         42           0       -3.975971    5.512275    6.932984
     40         16           0       -5.164190    3.956424    5.539048
     41         16           0       -6.230323    6.529392    7.413887
     42         42           0       -7.356035    4.624611    7.634491
     43         16           0       -7.245585    3.733537    5.472156
     44         16           0       -9.459483    4.883964    8.087193
 ---------------------------------------------------------------------
                    Distance matrix (angstroms):
                    1          2          3          4          5
     1  Mo   0.000000
     2  S    2.372028   0.000000
     3  S    2.347765   3.596222   0.000000
     4  S    2.379618   4.040945   3.369709   0.000000
     5  S    2.496190   3.899612   4.707980   3.315396   0.000000
     6  Mo   3.147957   4.065277   2.408324   2.425527   5.225615
[...]
 00001217,-0.00007316,0.00008795,-0.00006358,0.00002004,0.00019533,-0.0
 0002218,0.00019580,0.00009533,0.00000188,0.00001615,-0.00070451,0.0010
 1717,0.00042266,0.00022274,0.00056382,-0.00009375,-0.00054460,-0.00061
 511,0.00020071,0.00049503,0.00017500,-0.00000185,-0.00061307,0.0001734
 0,-0.00057312,0.00015578,0.00005895,0.00009661,-0.00037101,-0.00053528
 ,-0.00019151,-0.00096897,0.00329902,-0.00357026,-0.00001152,-0.0000584
 4,0.00005780,-0.00007518,0.00006139,-0.00013603,-0.00883490,0.00197949
 ,-0.00367658,0.00018249,0.00010812,0.00042128,-0.00120316,-0.00001333,
 0.00217957,0.00750299,-0.00120523,0.00485528,-0.00030367,-0.00047065,-
 0.00031491,-0.00004196,0.00006047,0.00007685,0.00002035,-0.00002529,0.
 00000597,0.00003438,-0.00004076,0.00000679,-0.00074766,0.00047389,-0.0
 0023531,-0.00048750,0.00024245,-0.00018424,0.00000571,-0.00014697,0.00
 009972,0.00008841,-0.00004256,-0.00005618,0.00000580,0.00008626,0.0001
 5741,0.00000237,0.00007224,-0.00012299,0.00009159,-0.00000635,0.000151
 06,0.00002117,-0.00000371,-0.00000080,-0.00000053,0.00001141,-0.000086
 01,0.00073030,0.00029032,-0.00014985,-0.00007582,-0.00004927,0.0000986
 9,0.00043276,-0.00007178,0.00000856,-0.00160927,-0.00075159,0.00100432
 ,-0.00577517,0.00462973,0.00003140,-0.00535773,-0.00039689,0.00199319,
 -0.01758126,-0.00130070,0.00300795,0.00214910,0.00470164,0.00129899,0.
 08761608,0.00050531,0.00038403,0.00033978,-0.00028770,-0.00005367,0.00
 004022,0.00000640,-0.00028538,-0.00012196,0.00031018,0.00005222,-0.000
 05567,0.00012336,0.00001916,0.00000988,-0.00062385,0.00097109,0.000379
 47,-0.00003680,0.00049984,-0.00052616,-0.00035893,-0.00052337,0.000166
 49,0.00012703,-0.00038939,-0.00000745,-0.00058583,0.00019198,0.0001562
 1,0.00012587,0.00000579,-0.00004600,-0.00051795,-0.00040548,-0.0002393
 9,0.00458757,0.00267063,-0.00071370,-0.00000201,-0.00003470,0.00004098
 ,0.00008322,0.00013886,-0.00002735,0.00217573,0.00118895,0.00429756,0.
 00007773,-0.00030891,0.00008859,-0.00282145,-0.00225548,0.00106901,0.0
 0553858,-0.00314728,0.00575059,0.00013233,-0.00016176,-0.00048294,-0.0
 0002505,0.00006847,0.00003186,0.00002059,-0.00002080,0.00000505,0.0000
 3741,-0.00004495,0.00000258,-0.00022297,0.00027373,0.00002026,-0.00035
 045,-0.00015494,0.00022220,0.00004650,-0.00000945,-0.00002132,0.000072
 44,-0.00003117,0.00005369,0.00002538,-0.00001910,-0.00001356,0.0000070
 6,0.00001287,-0.00001424,-0.00002398,-0.00004851,0.00005106,0.00002355
 ,0.00000040,-0.00000075,-0.00002319,-0.00007718,-0.00000840,0.00005863
 ,0.00018132,0.00033849,-0.00005250,-0.00000330,-0.00002839,-0.00006270
 ,-0.00003070,-0.00024469,0.00380988,0.00012251,0.00141047,-0.00323849,
 0.00292269,0.00097308,-0.00426475,0.00074604,-0.00015497,0.01695211,-0
 .02615937,-0.01112428,0.00319813,-0.00240421,-0.00538600,0.04844095,0.
 17368852,-0.00006307,-0.00016506,-0.00010341,0.00012275,0.00001613,-0.
 00002478,0.00009552,0.00006565,-0.00002369,-0.00019173,-0.00005835,0.0
 0008127,-0.00006595,-0.00000430,-0.00000287,-0.00024761,-0.00013266,-0
 .00004174,0.00016553,-0.00034657,0.00009997,0.00011585,0.00019727,0.00
 007451,0.00000322,0.00006997,-0.00000002,0.00014461,0.00017102,-0.0000
 3237,-0.00002799,-0.00001792,0.00006773,0.00019426,0.00015475,0.000131
 52,-0.00142825,-0.00327292,0.00018779,0.00001362,0.00002330,-0.0000156
 8,-0.00005260,-0.00008090,0.00000418,-0.00773563,0.00220653,-0.0029969
 7,-0.00015335,0.00014300,0.00001996,0.00050669,0.00149602,-0.00124877,
 -0.00006353,0.00117975,-0.00030956,0.00019644,-0.00033486,0.00041589,0
 .00001624,-0.00004266,-0.00001826,-0.00001461,0.00001914,-0.00000377,-
 0.00001344,0.00001265,0.00000411,0.00028534,0.00008247,0.00017751,0.00
 000603,0.00009310,-0.00022242,-0.00004472,-0.00000819,-0.00001339,-0.0
 0006325,0.00002629,-0.00005821,0.00001078,0.00002592,-0.00000199,0.000
 00992,-0.00001130,0.00001992,-0.00001874,0.00002403,-0.00005115,-0.000
 01254,0.00000465,-0.00000204,0.00000496,0.00002990,-0.00001121,-0.0000
 2458,0.00000028,-0.00018043,0.00002264,0.00002270,0.00003110,0.0001149
 0,0.00010094,0.00003940,-0.00124820,-0.00112639,0.00030234,0.00269507,
 0.00081304,0.00050525,0.00366322,0.00179697,-0.00129509,-0.00069235,-0
 .00105679,-0.00858701,-0.00074592,-0.00434390,-0.00067409,-0.00784519,
 -0.00423949,0.02401679,-0.00030053,0.00046975,0.00035696,-0.00025279,-
 0.00005191,0.00003499,0.00005370,-0.00037863,0.00010976,0.00045574,0.0
 0001716,-0.00034285,0.00016212,0.00001364,-0.00000667,0.00028029,-0.00
 015205,0.00064825,0.00008057,0.00079758,0.00030755,-0.00000975,0.00007
 193,0.00000182,0.00057280,-0.00009678,-0.00022758,-0.00012584,0.000140
 99,0.00023902,0.00009356,0.00006928,-0.00008451,-0.00047236,-0.0004125
 4,-0.00033674,0.00352035,-0.00024686,-0.00069237,-0.00001362,-0.000095
 36,0.00010900,0.00023618,0.00016497,0.00010106,-0.00350298,-0.00093691
 ,0.00195508,-0.00016228,0.00001759,-0.00016682,-0.00795488,-0.00055236
 ,-0.00404888,-0.02811697,0.02804316,-0.02017054,0.00079550,0.00065865,
 0.00025729,-0.00017352,0.00050377,-0.00008425,0.00016956,-0.00035960,0
 .00015506,0.00012118,-0.00007331,0.00003985,0.00064437,-0.00044073,0.0
 0029413,-0.00009947,-0.00006703,0.00033221,-0.00009847,0.00004881,-0.0
 0004819,-0.00018317,-0.00006604,-0.00012993,-0.00001016,-0.00004989,-0
 .00005534,0.00002583,0.00001286,0.00004523,-0.00018768,-0.00003425,0.0
 0022392,0.00017965,0.00001385,-0.00024621,-0.00005687,-0.00008934,0.00
 004060,-0.00030088,0.00008699,0.00056383,0.00017356,0.00001024,-0.0003
 2520,-0.00024021,-0.00007980,-0.00007700,0.00228687,0.00066661,0.00178
 062,-0.00286323,0.00002364,-0.00108446,-0.00122774,-0.00179746,-0.0003
 2221,-0.01298858,-0.00108001,-0.00362745,-0.00721563,0.00270451,0.0044
 0396,-0.04651699,-0.06390169,0.01159844,0.38523094,0.00007782,-0.00033
 303,-0.00023491,0.00048929,-0.00006672,0.00002804,0.00019762,0.0000500
 8,-0.00016055,-0.00022568,0.00016437,0.00019841,-0.00023296,-0.0000014
 4,-0.00004376,-0.00103766,-0.00102352,-0.00160058,-0.00037305,-0.00124
 348,0.00037819,0.00103552,0.00117986,-0.00062369,-0.00101856,-0.000366
 11,0.00069640,0.00030691,-0.00013451,-0.00001779,-0.00025921,0.0001019
 2,-0.00021365,0.00074680,0.00093585,0.00030970,-0.00360673,-0.00488060
 ,0.00774480,-0.00002790,0.00004413,-0.00009061,0.00000664,-0.00019649,
 0.00020408,0.00022101,-0.00048747,-0.00276414,-0.00010029,0.00004127,-
 0.00104565,0.01596026,0.00354911,0.00254179,0.00980044,-0.06203217,0.0
 3523842,0.00073835,0.00103645,-0.00116478,0.00027036,-0.00018303,-0.00
 003695,-0.00008708,0.00017404,-0.00008188,-0.00013169,0.00008210,-0.00
 003492,0.00141883,-0.00104801,0.00061959,0.00036190,-0.00032449,0.0004
 5533,0.00005911,0.00014956,-0.00016097,-0.00013573,0.00018889,-0.00013
 781,0.00002259,-0.00001514,-0.00015168,0.00000811,-0.00012652,0.000214
 35,-0.00006058,0.00006797,-0.00034469,-0.00009720,-0.00002718,0.000074
 65,-0.00003099,0.00004842,0.00003573,-0.00119621,-0.00035119,0.0000932
 6,-0.00000732,0.00002357,-0.00003834,-0.00045652,-0.00002253,0.0001928
 2,0.00269885,0.00313513,-0.00148314,0.00270609,-0.00252095,-0.00108311
 ,-0.00137131,-0.00339381,0.00153953,-0.01636421,0.02131049,0.00325912,
 0.00244284,-0.00481288,0.00303984,-0.04683115,-0.14782103,0.01334704,-
 0.00382292,0.25381427,-0.00092723,0.00043980,0.00056968,-0.00085631,0.
 00010819,-0.00011145,-0.00072126,-0.00008145,0.00019847,0.00081984,-0.
 00005383,-0.00014626,0.00045706,0.00005734,0.00010339,0.00274984,0.000
 79989,0.00105093,-0.00060711,0.00153083,0.00165832,-0.00027209,-0.0004
 8673,0.00033619,0.00229454,0.00089889,-0.00043669,-0.00024919,-0.00003
 391,-0.00036495,0.00036917,-0.00000563,0.00013648,-0.00116524,-0.00129
 977,-0.00104807,0.00297004,0.00288447,-0.00611716,-0.00003357,-0.00014
 280,0.00016276,0.00005326,0.00036589,-0.00020712,-0.00396012,0.0018502
 7,0.00266402,0.00017594,-0.00007125,0.00101066,-0.01134596,-0.00777840
 ,-0.00693145,-0.00980430,0.04295073,-0.03556837,-0.00207623,-0.0004131
 1,0.00001874,-0.00029685,0.00023609,0.00019780,0.00010590,-0.00019596,
 0.00007661,0.00016284,-0.00010625,-0.00002623,-0.00221159,0.00069649,-
 0.00140547,0.00005745,0.00001059,0.00007533,-0.00004456,-0.00017814,0.
 00031256,0.00025046,-0.00040704,0.00025394,-0.00004055,0.00002561,0.00
 025321,-0.00007707,0.00019106,-0.00039952,0.00027574,-0.00016396,0.000
 63420,0.00012326,0.00001768,-0.00009327,0.00000142,-0.00004337,-0.0000
 0554,0.00118748,0.00004094,0.00011767,0.00000055,-0.00007084,0.0000515
 9,-0.00040468,-0.00009319,-0.00003588,0.00009951,-0.00109078,0.0003944
 9,-0.00095670,-0.00255947,0.00070969,0.00002012,-0.00184341,0.00233460
 ,0.00065349,0.00273373,-0.00659366,0.02118150,-0.00357328,-0.00537433,
 0.00597217,0.01394775,-0.00847150,-0.04940879,-0.00468454,0.20389580,0
 .00008829,0.00003384,0.00014192,-0.00015624,0.00001224,-0.00004322,-0.
 00005857,-0.00006843,-0.00021139,0.00010411,0.00004008,-0.00006536,0.0
 0005307,0.00002885,0.00000786,0.00024132,0.00046840,0.00064553,-0.0003
 9540,0.00037538,0.00035810,-0.00000605,-0.00005273,0.00004827,0.000214
 91,0.00005256,0.00010681,-0.00025885,0.00036800,-0.00034731,0.00010635
 ,0.00008167,-0.00000657,-0.00022834,-0.00019008,-0.00020967,-0.0000726
 2,0.00129511,-0.00046962,-0.00001896,-0.00003282,0.00002252,-0.0000236
 6,0.00004327,-0.00002964,0.00068041,-0.00019871,0.00036943,0.00010239,
 -0.00014733,0.00023705,-0.00113400,-0.00259472,0.00088155,0.00052889,0
 .00016051,0.00238352,-0.00007005,-0.00038808,-0.00119945,0.00006636,-0
 .00006865,0.00008281,-0.00003150,0.00007941,-0.00004065,-0.00000625,-0
 .00001810,-0.00001850,-0.00040029,0.00022037,-0.00032100,-0.00004895,-
 0.00004234,-0.00007639,0.00003684,-0.00004647,0.00004000,0.00011197,-0
 .00009297,0.00004101,0.00001551,0.00005887,0.00008326,-0.00001160,0.00
 001961,-0.00005349,0.00009561,-0.00000290,-0.00001309,-0.00003548,-0.0
 0001195,0.00007682,0.00001733,-0.00000920,-0.00001555,0.00037113,-0.00
 010834,-0.00001460,-0.00011166,-0.00000870,0.00015024,-0.00014693,-0.0
 0017821,0.00023927,-0.00015299,0.00033350,-0.00094830,-0.00239536,-0.0
 0407624,-0.00286311,0.00018261,-0.00133469,0.00095155,-0.00998076,-0.0
 0231637,-0.00788992,-0.09618279,-0.00177398,0.00650956,-0.00206102,0.0
 0085293,-0.00004353,-0.01090297,-0.00504587,-0.01271300,0.12058029,0.0
 0011229,-0.00015059,-0.00016469,0.00012621,0.00001108,-0.00001210,-0.0
 0001669,0.00009002,-0.00009260,-0.00010364,-0.00002489,0.00008783,-0.0
 0005726,-0.00001091,-0.00000879,-0.00025100,-0.00030858,0.00019888,0.0
 0049461,-0.00011301,-0.00020769,-0.00008853,0.00002338,0.00000289,-0.0
 0034538,-0.00006617,0.00002343,-0.00000747,-0.00013650,0.00006735,-0.0
 0005021,-0.00002844,0.00001666,0.00017393,0.00017978,0.00014868,-0.000
 15977,0.00044724,-0.00219279,0.00001077,0.00002315,-0.00001808,-0.0000
 2018,-0.00006225,0.00002388,-0.00057177,-0.00070481,-0.00002420,0.0000
 7958,0.00005477,0.00019207,-0.00009317,0.00191138,-0.00046138,-0.00138
 468,0.00448203,0.00079573,0.00000760,0.00000900,0.00049603,0.00003011,
 -0.00004292,-0.00002700,-0.00001654,0.00002843,-0.00000926,-0.00001618
 ,0.00001559,0.00000435,0.00018870,-0.00001004,0.00017172,-0.00002283,-
 0.00005448,-0.00005259,0.00002500,0.00002950,-0.00003099,-0.00005412,0
 .00004970,0.00000486,-0.00000386,-0.00001314,-0.00003842,0.00000683,-0
 .00002550,0.00004587,-0.00002836,0.00002653,-0.00009125,-0.00002100,-0
 .00000303,0.00002687,0.00000881,-0.00001554,0.00001569,-0.00019234,0.0
 0008051,-0.00011660,0.00000569,-0.00000125,0.00000490,0.00019564,0.000
 04312,-0.00003257,-0.00076282,-0.00035277,-0.00001368,0.00016175,0.000
 45376,0.00024984,0.00012768,0.00172202,-0.00054695,-0.00372137,-0.0018
 4989,0.00157997,-0.00071314,-0.01326765,-0.00435201,-0.00520710,-0.005
 69691,-0.00891228,-0.00153228,-0.02750389,-0.03604599,0.01111340,0.042
 00427,0.00053264,-0.00009547,-0.00013030,0.00029794,-0.00005556,0.0001
 0720,0.00033150,-0.00001718,-0.00011650,-0.00033001,-0.00000156,0.0000
 2298,-0.00017579,-0.00000574,-0.00005231,-0.00070542,0.00031797,-0.000
 15398,0.00030500,-0.00093455,-0.00097870,0.00003574,-0.00015128,0.0000
 8224,-0.00091464,-0.00045307,0.00007601,-0.00012931,0.00004762,0.00029
 239,-0.00010998,-0.00000514,-0.00007219,0.00038073,0.00044269,0.000437
 16,0.00030927,-0.00009014,0.00271284,0.00001193,0.00005148,-0.00006495
 ,-0.00001648,-0.00013201,0.00006691,0.00002861,-0.00009563,-0.00009521
 ,0.00005290,0.00011039,-0.00015562,0.00208424,0.00340644,0.00171504,-0
 .00700359,0.00566017,-0.00889199,0.00073857,-0.00055923,-0.00046844,0.
 00012591,-0.00009082,-0.00006298,-0.00004617,0.00009087,-0.00003715,-0
 .00006007,0.00002384,0.00000999,0.00070086,-0.00010978,0.00052716,-0.0
 0004443,-0.00012770,-0.00017850,0.00002445,0.00004695,-0.00010563,-0.0
 0010568,0.00018990,-0.00009097,0.00000989,-0.00004012,-0.00015073,0.00
 003742,-0.00007221,0.00016296,-0.00012933,0.00005691,-0.00025636,-0.00
 005412,-0.00000510,0.00005335,0.00002548,-0.00000203,0.00003263,-0.000
 40780,0.00016232,-0.00003517,-0.00002574,0.00001527,0.00000387,0.00050
 664,0.00004094,-0.00013997,-0.00161507,0.00032076,-0.00054271,-0.00131
 182,0.00059613,0.00108896,0.00181059,0.00088672,-0.00001008,-0.0034754
 6,-0.00253186,-0.00130089,-0.00276476,-0.00268937,-0.00763189,-0.00559
 829,-0.00820678,-0.00016040,0.00175450,-0.04548457,-0.11586687,0.00626
 687,0.04892664,0.13119885,0.00002898,-0.00016139,-0.00015303,0.0001394
 4,-0.00000459,-0.00000333,-0.00001331,0.00019628,-0.00019940,-0.000068
 52,0.00003909,0.00012466,-0.00004782,0.00002655,0.00000462,0.00012976,
 -0.00064681,0.00020237,0.00007465,-0.00032909,-0.00013983,0.00010925,0
 .00008707,-0.00003544,-0.00034594,-0.00006510,0.00022937,-0.00015521,-
 0.00006130,-0.00006896,-0.00007582,-0.00004727,0.00000144,0.00022498,0
 .00028164,0.00007066,-0.00012981,0.00018453,-0.00051791,-0.00000023,0.
 00006453,-0.00009923,-0.00012439,-0.00004060,-0.00005923,0.00000159,-0
 .00006451,0.00016276,0.00011240,0.00002386,0.00022816,0.00144658,0.001
 51213,0.00146392,-0.00341277,0.00549985,-0.00729550,-0.00008722,0.0000
 3207,-0.00042185,0.00012310,-0.00045149,0.00016200,-0.00014785,0.00033
 328,-0.00015088,-0.00004766,0.00003639,-0.00005871,-0.00058626,0.00018
 725,-0.00034629,0.00000752,0.00000017,-0.00000293,0.00013494,-0.000016
 91,0.00004519,0.00018922,-0.00002028,0.00023218,0.00001284,0.00003840,
 0.00006855,-0.00004205,-0.00001562,-0.00007384,0.00020891,0.00002484,-
 0.00015829,-0.00015806,-0.00002394,0.00023824,0.00001923,0.00000569,-0
 .00001973,0.00038361,0.00007445,-0.00032892,-0.00019867,-0.00003928,0.
 00031580,0.00000496,-0.00005532,0.00000066,-0.00044942,-0.00000155,-0.
 00003433,0.00035243,-0.00029699,0.00028095,0.00024665,0.00001738,0.000
 07676,0.00032819,-0.00026936,0.00118730,-0.00032828,-0.00028061,-0.000
 68936,-0.00612609,-0.00993859,0.00081076,-0.27110519,0.04295150,0.0581
 9079,0.00129390,0.00257312,0.00865227,0.27807743,0.00016007,0.00004632
 ,0.00003180,-0.00003282,-0.00001454,0.00002041,0.00000993,-0.00003426,
 -0.00001385,-0.00002040,-0.00002509,-0.00002837,-0.00000543,-0.0000028
 3,-0.00000911,-0.00008316,0.00021853,0.00010213,0.00011523,-0.00010497
 ,-0.00021767,-0.00007416,-0.00009224,0.00005063,-0.00002045,-0.0000612
 3,0.00001502,-0.00009745,-0.00001238,-0.00004889,0.00000819,0.00000582
 ,-0.00001137,-0.00004521,-0.00005165,0.00003139,0.00040778,0.00000148,
 -0.00001472,-0.00000006,-0.00000835,0.00001030,0.00001600,0.00000244,0
 .00000209,-0.00006070,-0.00004013,-0.00030659,-0.00001902,0.00003594,-
 0.00002956,0.00017812,0.00078869,-0.00021393,0.00340449,-0.00000965,-0
 .00146557,0.00000883,-0.00018678,0.00012641,-0.00001296,0.00006810,-0.
 00002750,0.00001991,-0.00004317,0.00001913,-0.00000038,-0.00000561,0.0
 0001138,0.00018176,0.00001852,0.00010869,-0.00004972,0.00002796,-0.000
 02689,-0.00001227,-0.00000375,-0.00001188,-0.00002857,0.00004018,-0.00
 005580,0.00000112,-0.00001274,-0.00002845,0.00000945,0.00000131,0.0000
 1609,-0.00004560,-0.00000242,0.00001525,0.00001865,0.00000308,-0.00002
 784,-0.00000293,-0.00000869,0.00000163,-0.00001449,0.00003585,0.000055
 63,0.00001966,0.00000303,-0.00003959,0.00006457,0.00000710,-0.00004174
 ,-0.00005711,-0.00014596,0.00022107,-0.00064903,0.00055056,-0.00023185
 ,0.00021486,-0.00004345,-0.00007966,0.00178045,-0.00088507,0.00068411,
 -0.00030215,0.00085529,-0.00121242,-0.00857722,0.00594794,0.00203203,0
 .04178177,-0.02718130,-0.00836318,0.00316989,-0.00124205,0.00056288,-0
 .04135945,0.02156015,-0.00000038,0.00005287,-0.00000562,0.00000111,-0.
 00000747,0.00002363,0.00004440,-0.00004437,0.00009483,-0.00001040,0.00
 000640,-0.00008687,-0.00000517,-0.00001114,-0.00001044,0.00000973,-0.0
 0016123,0.00014048,0.00011703,0.00000763,-0.00012060,-0.00005347,-0.00
 000306,-0.00001354,-0.00001318,-0.00004986,-0.00007236,0.00000325,0.00
 006439,0.00000841,0.00000387,0.00001876,-0.00000679,-0.00002805,-0.000
 02894,0.00003815,-0.00035583,-0.00030824,0.00063658,0.00000305,-0.0000
 1050,0.00001863,0.00003313,-0.00000100,0.00001992,0.00022547,-0.000224
 51,-0.00076916,-0.00002197,0.00007847,-0.00010245,-0.00033428,-0.00014
 186,0.00085135,-0.00321534,-0.00129666,0.00253182,0.00035571,0.0002080
 0,-0.00019709,-0.00003246,0.00011861,-0.00005170,0.00003940,-0.0000884
 2,0.00004078,0.00000934,-0.00000820,0.00001821,0.00029113,-0.00007982,
 0.00017662,-0.00001279,0.00009679,-0.00003425,-0.00003171,0.00001444,-
 0.00002829,-0.00005743,0.00001776,-0.00007531,-0.00000655,-0.00000327,
 -0.00002426,0.00001716,-0.00000676,0.00004447,-0.00008030,0.00001064,0
 .00001077,0.00004188,0.00000638,-0.00006604,-0.00000807,-0.00000041,-0
 .00000404,-0.00011784,-0.00006453,0.00008183,0.00006232,0.00001901,-0.
 00010454,0.00000996,0.00005921,-0.00000762,0.00018851,-0.00024663,0.00
 005800,-0.00032216,0.00062896,-0.00050577,-0.00015367,0.00007426,-0.00
 011605,0.00187713,0.00085691,0.00243563,-0.00095649,-0.00204859,-0.000
 89434,0.00029418,0.00226822,-0.00162840,0.05613284,-0.00852841,-0.0280
 1333,0.00794940,0.00036776,-0.00084006,-0.06189243,0.00838839,0.026548
 81\\-0.00002818,-0.00002830,-0.00002327,-0.00000525,0.00000347,-0.0000
 0133,0.00001447,0.00001352,0.00001070,0.00002365,0.00000991,-0.0000099
 2,0.00000550,-0.00000167,0.00000867,-0.00000159,-0.00001677,-0.0000339
 8,-0.00000646,-0.00000746,-0.00000450,0.00001100,0.00000410,-0.0000034
 8,0.00001261,0.00003644,0.00000377,-0.00000990,-0.00000920,0.00000271,
 0.00000007,0.00000606,-0.00000429,-0.00002407,-0.00006625,0.00001106,0
 .00003887,-0.00000637,0.00004731,0.00000478,0.00000826,-0.00000516,-0.
 00000599,0.00001622,-0.00001235,0.00000814,0.00002234,-0.00000231,0.00
 000644,0.00001593,0.00000201,-0.00002450,-0.00001298,-0.00003807,0.000
 00617,-0.00000158,0.00002073,0.00000747,0.00001392,-0.00000037,-0.0000
 0479,0.00000176,0.00000617,0.00000456,-0.00000066,-0.00000384,0.000017
 52,0.00000976,0.00000659,-0.00001086,-0.00001863,-0.00003006,-0.000010
 26,-0.00000400,0.00000238,0.00000402,0.00000635,-0.00000519,0.00002132
 ,-0.00000811,0.00004433,-0.00000967,0.00000616,0.00000613,-0.00000240,
 0.00000419,-0.00000964,0.00000164,-0.00000303,0.00000526,-0.00000017,0
 .00000407,0.00000172,0.00000198,-0.00000073,-0.00000299,-0.00000549,0.
 00000930,0.00000851,0.00000338,-0.00000313,0.00000357,-0.00001183,-0.0
 0000188,0.00000921,0.00001742,0.00002838,0.00000330,-0.00002022,-0.000
 00453,0.00000147,-0.00000780,-0.00000305,0.00001226,-0.00000726,-0.000
 01050,-0.00003240,0.00002164,-0.00000828,0.00000733,0.00000202,0.00000
 088,0.00001866,0.00000063,-0.00000004,-0.00001876,-0.00003608,-0.00000
 454,0.00000071,-0.00000254,0.00000069,-0.00000262\\\@
 The archive entry for this job was punched.


 ALMOST ANYTHING IS EASIER TO GET INTO THAN OUT OF.

                         -- AGNES ALLEN'S LAW FROM
                PAUL DICKSON'S "THE OFFICIAL RULES"
 Job cpu time:       1 days 12 hours 57 minutes  8.1 seconds.
 Elapsed time:       0 days  0 hours 48 minutes 22.9 seconds.
 File lengths (MBytes):  RWF=   4918 Int=      0 D2E=      0 Chk=     67 Scr=      2
 Normal termination of Gaussian 16 at Fri Dec 23 11:48:56 2022.
