 Entering Gaussian System, Link 0=g16
 Initial command:
 /home/chesagar/softwares/G16_AVX2//g16/l1.exe "/home/chesagar/scratch/Gau-89233.inp" -scrdir="/home/chesagar/scratch/"
 Entering Link 1 = /home/chesagar/softwares/G16_AVX2//g16/l1.exe PID=     89235.
  
 Copyright (c) 1988-2019, Gaussian, Inc.  All Rights Reserved.
  
 This is part of the Gaussian(R) 16 program.  It is based on
 the Gaussian(R) 09 system (copyright 2009, Gaussian, Inc.),
 the Gaussian(R) 03 system (copyright 2003, Gaussian, Inc.),
 the Gaussian(R) 98 system (copyright 1998, Gaussian, Inc.),
 the Gaussian(R) 94 system (copyright 1995, Gaussian, Inc.),
 the Gaussian 92(TM) system (copyright 1992, Gaussian, Inc.),
 the Gaussian 90(TM) system (copyright 1990, Gaussian, Inc.),
 the Gaussian 88(TM) system (copyright 1988, Gaussian, Inc.),
 the Gaussian 86(TM) system (copyright 1986, Carnegie Mellon
 University), and the Gaussian 82(TM) system (copyright 1983,
 Carnegie Mellon University). Gaussian is a federally registered
 trademark of Gaussian, Inc.
  
 This software contains proprietary and confidential information,
 including trade secrets, belonging to Gaussian, Inc.
  
 This software is provided under written license and may be
 used, copied, transmitted, or stored only in accord with that
 written license.
  
 The following legend is applicable only to US Government
 contracts under FAR:
  
                    RESTRICTED RIGHTS LEGEND
  
 Use, reproduction and disclosure by the US Government is
 subject to restrictions as set forth in subparagraphs (a)
 and (c) of the Commercial Computer Software - Restricted
 Rights clause in FAR 52.227-19.
  
 Gaussian, Inc.
 340 Quinnipiac St., Bldg. 40, Wallingford CT 06492
  
  
 ---------------------------------------------------------------
 Warning -- This program may not be used in any manner that
 competes with the business of Gaussian, Inc. or will provide
 assistance to any competitor of Gaussian, Inc.  The licensee
 of this program is prohibited from giving any competitor of
 Gaussian, Inc. access to this program.  By using this program,
 the user acknowledges that Gaussian, Inc. is engaged in the
 business of creating and licensing software in the field of
 computational chemistry and represents and warrants to the
 licensee that it is not a competitor of Gaussian, Inc. and that
 it will not use this program in any manner prohibited above.
 ---------------------------------------------------------------
  

 Cite this work as:
 Gaussian 16, Revision C.01,
 M. J. Frisch, G. W. Trucks, H. B. Schlegel, G. E. Scuseria, 
 M. A. Robb, J. R. Cheeseman, G. Scalmani, V. Barone, 
 G. A. Petersson, H. Nakatsuji, X. Li, M. Caricato, A. V. Marenich, 
 J. Bloino, B. G. Janesko, R. Gomperts, B. Mennucci, H. P. Hratchian, 
 J. V. Ortiz, A. F. Izmaylov, J. L. Sonnenberg, D. Williams-Young, 
 F. Ding, F. Lipparini, F. Egidi, J. Goings, B. Peng, A. Petrone, 
 T. Henderson, D. Ranasinghe, V. G. Zakrzewski, J. Gao, N. Rega, 
 G. Zheng, W. Liang, M. Hada, M. Ehara, K. Toyota, R. Fukuda, 
 J. Hasegawa, M. Ishida, T. Nakajima, Y. Honda, O. Kitao, H. Nakai, 
 T. Vreven, K. Throssell, J. A. Montgomery, Jr., J. E. Peralta, 
 F. Ogliaro, M. J. Bearpark, J. J. Heyd, E. N. Brothers, K. N. Kudin, 
 V. N. Staroverov, T. A. Keith, R. Kobayashi, J. Normand, 
 K. Raghavachari, A. P. Rendell, J. C. Burant, S. S. Iyengar, 
 J. Tomasi, M. Cossi, J. M. Millam, M. Klene, C. Adamo, R. Cammi, 
 J. W. Ochterski, R. L. Martin, K. Morokuma, O. Farkas, 
 J. B. Foresman, and D. J. Fox, Gaussian, Inc., Wallingford CT, 2019.
 
 ******************************************
 Gaussian 16:  ES64L-G16RevC.01  3-Jul-2019
                25-Jan-2023 
 ******************************************
 %nprocshared=46
 Will use up to   46 processors via shared memory.
 %mem=100GB
 ---------------------------------------
 # opt freq b3lyp/gen nosymm pseudo=read
 ---------------------------------------
 1/18=20,19=15,26=3,38=1/1,3;
 2/9=110,12=2,15=1,17=6,18=5,40=1/2;
 3/5=7,11=2,16=1,17=8,25=1,30=1,71=1,74=-5/1,2,3;
 4//1;
 5/5=2,38=5/2;
 6/7=2,8=2,9=2,10=2,28=1/1;
 7/30=1/1,2,3,16;
 1/18=20,19=15,26=3/3(2);
 2/9=110,15=1/2;
 99//99;
 2/9=110,15=1/2;
 3/5=7,6=1,11=2,16=1,17=8,25=1,30=1,71=1,74=-5,82=7/1,2,3;
 4/5=5,16=3,69=1/1;
 5/5=2,38=5/2;
 7/30=1/1,2,3,16;
 1/18=20,19=15,26=3/3(-5);
 2/9=110,15=1/2;
 6/7=2,8=2,9=2,10=2,19=2,28=1/1;
 99/9=1/99;
 -------------------
 Title Card Required
 -------------------
 Symbolic Z-matrix:
 Charge =  0 Multiplicity = 1
 42                    0.56314   1.40347   12.31059 
 16                    1.50564   3.56308   12.5857 
 16                   -1.65959   1.75958   13.01514 
 16                   -0.27799   0.87222   10.15166 
 16                    2.43259  -0.13918   11.76692 
 42                   -2.04502   2.47931   10.69594 
 16                   -2.64543   1.99638   8.45066 
 16                   -1.05764   4.50144   10.63749 
 42                    0.9689    3.01775   10.2525 
 16                    0.34047   3.27174   7.84973 
 16                    2.88603   1.85047   9.32947 
 42                    3.28673   2.32988   11.66845 
 42                   -1.87905   4.3204    8.25879 
 16                    4.41565   2.02287   13.90506 
 16                    4.89839   4.00161   11.43886 
 16                   -3.653     5.78941   9.05859 
 16                   -0.55731   6.50422   8.16232 
 42                   -4.41304   3.53004   9.20238 
 16                   -6.42038   5.03927   10.30251 
 16                   -4.20847   3.12347   11.4801 
 42                    2.98104   0.30846   13.96292 
 16                    3.77326  -1.36845   14.99104 
 16                    1.03721   0.95612   14.82205 
 42                    1.5806    5.41373   7.28148 
 16                    0.74296   5.03753   5.02888 
 16                    1.88891   5.42392   9.89412 
 42                    3.63627   4.11356   9.47055 
 16                    3.49842   3.90949   6.97311 
 16                    5.33157   6.05009   9.07644 
 42                    4.35613   6.08124   7.0946 
 16                    5.67338   6.41944   5.4743 
 16                    2.58631   7.69818   7.2226 
 42                    1.54015   7.24096   5.10848 
 16                    2.80989   7.60034   3.45316 
 16                   -0.33633   8.39987   5.11821 
 42                   -1.24743   6.15418   6.05135 
 16                   -2.11954   3.94488   5.90261 
 16                   -3.28149   7.39756   5.7491 
 42                   -3.87637   5.42327   6.74734 
 16                   -4.80418   3.23128   6.30855 
 16                   -6.31698   6.36108   6.89501 
 42                   -7.20255   4.88161   8.27685 
 16                   -6.29029   2.61407   7.88806 
 16                   -9.30772   5.0915    8.34079 
 

 GradGradGradGradGradGradGradGradGradGradGradGradGradGradGradGradGradGrad
 Berny optimization.
 Initialization pass.
                           ----------------------------
                           !    Initial Parameters    !
                           ! (Angstroms and Degrees)  !
 --------------------------                            --------------------------
 ! Name  Definition              Value          Derivative Info.                !
 --------------------------------------------------------------------------------
 ! R1    R(1,2)                  2.3723         estimate D2E/DX2                !
 ! R2    R(1,3)                  2.3588         estimate D2E/DX2                !
 ! R3    R(1,4)                  2.3771         estimate D2E/DX2                !
 ! R4    R(1,5)                  2.484          estimate D2E/DX2                !
 ! R5    R(1,9)                  2.6469         estimate D2E/DX2                !
 ! R6    R(1,12)                 2.9476         estimate D2E/DX2                !
 ! R7    R(1,23)                 2.5947         estimate D2E/DX2                !
 ! R8    R(2,9)                  2.4555         estimate D2E/DX2                !
 ! R9    R(2,12)                 2.3525         estimate D2E/DX2                !
 ! R10   R(3,6)                  2.4587         estimate D2E/DX2                !
 ! R11   R(4,6)                  2.4498         estimate D2E/DX2                !
 ! R12   R(4,9)                  2.4836         estimate D2E/DX2                !
 ! R13   R(5,12)                 2.6145         estimate D2E/DX2                !
 ! R14   R(5,21)                 2.3073         estimate D2E/DX2                !
 ! R15   R(6,7)                  2.3738         estimate D2E/DX2                !
 ! R16   R(6,8)                  2.2511         estimate D2E/DX2                !
 ! R17   R(6,9)                  3.0936         estimate D2E/DX2                !
 ! R18   R(6,13)                 3.0589         estimate D2E/DX2                !
 ! R19   R(6,18)                 2.9904         estimate D2E/DX2                !
 ! R20   R(6,20)                 2.3896         estimate D2E/DX2                !
 ! R21   R(7,13)                 2.4546         estimate D2E/DX2                !
 ! R22   R(7,18)                 2.458          estimate D2E/DX2                !
 ! R23   R(8,9)                  2.5409         estimate D2E/DX2                !
 ! R24   R(8,13)                 2.523          estimate D2E/DX2                !
 ! R25   R(9,10)                 2.4965         estimate D2E/DX2                !
 ! R26   R(9,11)                 2.4269         estimate D2E/DX2                !
 ! R27   R(9,12)                 2.8019         estimate D2E/DX2                !
 ! R28   R(9,26)                 2.6009         estimate D2E/DX2                !
 ! R29   R(9,27)                 2.9878         estimate D2E/DX2                !
 ! R30   R(10,13)                2.4886         estimate D2E/DX2                !
 ! R31   R(10,24)                2.5395         estimate D2E/DX2                !
 ! R32   R(11,12)                2.421          estimate D2E/DX2                !
 ! R33   R(11,27)                2.3884         estimate D2E/DX2                !
 ! R34   R(12,14)                2.5241         estimate D2E/DX2                !
 ! R35   R(12,15)                2.3334         estimate D2E/DX2                !
 ! R36   R(12,21)                3.0731         estimate D2E/DX2                !
 ! R37   R(12,27)                2.8521         estimate D2E/DX2                !
 ! R38   R(13,16)                2.4382         estimate D2E/DX2                !
 ! R39   R(13,17)                2.5545         estimate D2E/DX2                !
 ! R40   R(13,18)                2.8171         estimate D2E/DX2                !
 ! R41   R(13,36)                2.9385         estimate D2E/DX2                !
 ! R42   R(13,37)                2.398          estimate D2E/DX2                !
 ! R43   R(13,39)                2.7368         estimate D2E/DX2                !
 ! R44   R(14,21)                2.2362         estimate D2E/DX2                !
 ! R45   R(15,27)                2.3409         estimate D2E/DX2                !
 ! R46   R(16,18)                2.3881         estimate D2E/DX2                !
 ! R47   R(16,39)                2.3507         estimate D2E/DX2                !
 ! R48   R(17,24)                2.5565         estimate D2E/DX2                !
 ! R49   R(17,36)                2.2483         estimate D2E/DX2                !
 ! R50   R(18,19)                2.7418         estimate D2E/DX2                !
 ! R51   R(18,20)                2.3227         estimate D2E/DX2                !
 ! R52   R(18,43)                2.4679         estimate D2E/DX2                !
 ! R53   R(19,42)                2.1771         estimate D2E/DX2                !
 ! R54   R(21,22)                2.1205         estimate D2E/DX2                !
 ! R55   R(21,23)                2.2217         estimate D2E/DX2                !
 ! R56   R(24,25)                2.4326         estimate D2E/DX2                !
 ! R57   R(24,26)                2.6308         estimate D2E/DX2                !
 ! R58   R(24,28)                2.4568         estimate D2E/DX2                !
 ! R59   R(24,30)                2.8608         estimate D2E/DX2                !
 ! R60   R(24,32)                2.4967         estimate D2E/DX2                !
 ! R61   R(24,33)                2.8394         estimate D2E/DX2                !
 ! R62   R(25,33)                2.3446         estimate D2E/DX2                !
 ! R63   R(25,36)                2.5008         estimate D2E/DX2                !
 ! R64   R(26,27)                2.2248         estimate D2E/DX2                !
 ! R65   R(27,28)                2.5096         estimate D2E/DX2                !
 ! R66   R(27,29)                2.6038         estimate D2E/DX2                !
 ! R67   R(28,30)                2.3381         estimate D2E/DX2                !
 ! R68   R(29,30)                2.2091         estimate D2E/DX2                !
 ! R69   R(30,31)                2.1154         estimate D2E/DX2                !
 ! R70   R(30,32)                2.4007         estimate D2E/DX2                !
 ! R71   R(32,33)                2.4027         estimate D2E/DX2                !
 ! R72   R(33,34)                2.1169         estimate D2E/DX2                !
 ! R73   R(33,35)                2.2055         estimate D2E/DX2                !
 ! R74   R(35,36)                2.5969         estimate D2E/DX2                !
 ! R75   R(36,37)                2.3799         estimate D2E/DX2                !
 ! R76   R(36,38)                2.4031         estimate D2E/DX2                !
 ! R77   R(36,39)                2.816          estimate D2E/DX2                !
 ! R78   R(37,39)                2.4466         estimate D2E/DX2                !
 ! R79   R(38,39)                2.2909         estimate D2E/DX2                !
 ! R80   R(39,40)                2.4204         estimate D2E/DX2                !
 ! R81   R(39,41)                2.6188         estimate D2E/DX2                !
 ! R82   R(40,43)                2.2548         estimate D2E/DX2                !
 ! R83   R(41,42)                2.2097         estimate D2E/DX2                !
 ! R84   R(42,43)                2.4749         estimate D2E/DX2                !
 ! R85   R(42,44)                2.1166         estimate D2E/DX2                !
 ! A1    A(2,1,3)              101.6716         estimate D2E/DX2                !
 ! A2    A(2,1,4)              116.7019         estimate D2E/DX2                !
 ! A3    A(2,1,5)              106.9619         estimate D2E/DX2                !
 ! A4    A(2,1,23)              88.4021         estimate D2E/DX2                !
 ! A5    A(3,1,4)               88.3715         estimate D2E/DX2                !
 ! A6    A(3,1,5)              150.2657         estimate D2E/DX2                !
 ! A7    A(3,1,9)              106.5365         estimate D2E/DX2                !
 ! A8    A(3,1,12)             152.6641         estimate D2E/DX2                !
 ! A9    A(3,1,23)              84.7836         estimate D2E/DX2                !
 ! A10   A(4,1,5)               85.913          estimate D2E/DX2                !
 ! A11   A(4,1,12)             101.498          estimate D2E/DX2                !
 ! A12   A(4,1,23)             154.851          estimate D2E/DX2                !
 ! A13   A(5,1,9)               95.3479         estimate D2E/DX2                !
 ! A14   A(5,1,23)              88.1246         estimate D2E/DX2                !
 ! A15   A(9,1,23)             146.0724         estimate D2E/DX2                !
 ! A16   A(12,1,23)             95.5223         estimate D2E/DX2                !
 ! A17   A(1,3,6)               84.8461         estimate D2E/DX2                !
 ! A18   A(1,4,6)               84.6544         estimate D2E/DX2                !
 ! A19   A(1,5,21)              81.3786         estimate D2E/DX2                !
 ! A20   A(3,6,4)               84.5178         estimate D2E/DX2                !
 ! A21   A(3,6,7)              150.7249         estimate D2E/DX2                !
 ! A22   A(3,6,8)              102.6317         estimate D2E/DX2                !
 ! A23   A(3,6,9)               91.9159         estimate D2E/DX2                !
 ! A24   A(3,6,13)             156.8111         estimate D2E/DX2                !
 ! A25   A(3,6,18)             134.2757         estimate D2E/DX2                !
 ! A26   A(3,6,20)              84.9115         estimate D2E/DX2                !
 ! A27   A(4,6,7)               80.7255         estimate D2E/DX2                !
 ! A28   A(4,6,8)              105.4943         estimate D2E/DX2                !
 ! A29   A(4,6,13)             100.2934         estimate D2E/DX2                !
 ! A30   A(4,6,18)             133.6877         estimate D2E/DX2                !
 ! A31   A(4,6,20)             154.5257         estimate D2E/DX2                !
 ! A32   A(7,6,8)              105.6128         estimate D2E/DX2                !
 ! A33   A(7,6,9)               98.4094         estimate D2E/DX2                !
 ! A34   A(7,6,20)              97.8298         estimate D2E/DX2                !
 ! A35   A(8,6,18)              91.0737         estimate D2E/DX2                !
 ! A36   A(8,6,20)              99.4089         estimate D2E/DX2                !
 ! A37   A(9,6,13)              74.2269         estimate D2E/DX2                !
 ! A38   A(9,6,18)             129.6979         estimate D2E/DX2                !
 ! A39   A(9,6,20)             151.9029         estimate D2E/DX2                !
 ! A40   A(13,6,20)             98.5299         estimate D2E/DX2                !
 ! A41   A(9,8,13)              94.2958         estimate D2E/DX2                !
 ! A42   A(1,9,6)               68.4725         estimate D2E/DX2                !
 ! A43   A(1,9,8)               96.6637         estimate D2E/DX2                !
 ! A44   A(1,9,10)             140.5149         estimate D2E/DX2                !
 ! A45   A(1,9,11)              97.093          estimate D2E/DX2                !
 ! A46   A(1,9,26)             136.5169         estimate D2E/DX2                !
 ! A47   A(1,9,27)             124.3339         estimate D2E/DX2                !
 ! A48   A(2,9,4)              109.888          estimate D2E/DX2                !
 ! A49   A(2,9,6)               96.6274         estimate D2E/DX2                !
 ! A50   A(2,9,8)               84.3002         estimate D2E/DX2                !
 ! A51   A(2,9,10)             161.2526         estimate D2E/DX2                !
 ! A52   A(2,9,11)             107.1896         estimate D2E/DX2                !
 ! A53   A(2,9,26)              81.2656         estimate D2E/DX2                !
 ! A54   A(2,9,27)              88.4002         estimate D2E/DX2                !
 ! A55   A(4,9,8)               96.3254         estimate D2E/DX2                !
 ! A56   A(4,9,10)              85.5515         estimate D2E/DX2                !
 ! A57   A(4,9,11)              88.0311         estimate D2E/DX2                !
 ! A58   A(4,9,12)             102.9293         estimate D2E/DX2                !
 ! A59   A(4,9,27)             138.9741         estimate D2E/DX2                !
 ! A60   A(6,9,10)              84.8611         estimate D2E/DX2                !
 ! A61   A(6,9,11)             137.7659         estimate D2E/DX2                !
 ! A62   A(6,9,12)             133.6913         estimate D2E/DX2                !
 ! A63   A(6,9,26)             121.6949         estimate D2E/DX2                !
 ! A64   A(8,9,10)              83.4345         estimate D2E/DX2                !
 ! A65   A(8,9,12)             136.5984         estimate D2E/DX2                !
 ! A66   A(8,9,26)              76.2783         estimate D2E/DX2                !
 ! A67   A(8,9,27)             122.5143         estimate D2E/DX2                !
 ! A68   A(10,9,11)             83.2081         estimate D2E/DX2                !
 ! A69   A(10,9,12)            136.0206         estimate D2E/DX2                !
 ! A70   A(10,9,26)             82.0854         estimate D2E/DX2                !
 ! A71   A(10,9,27)             86.3034         estimate D2E/DX2                !
 ! A72   A(11,9,26)             96.4961         estimate D2E/DX2                !
 ! A73   A(12,9,26)             90.2372         estimate D2E/DX2                !
 ! A74   A(9,10,13)             96.2676         estimate D2E/DX2                !
 ! A75   A(9,10,24)            100.2679         estimate D2E/DX2                !
 ! A76   A(13,10,24)            96.7127         estimate D2E/DX2                !
 ! A77   A(1,12,11)             89.731          estimate D2E/DX2                !
 ! A78   A(1,12,14)            100.4859         estimate D2E/DX2                !
 ! A79   A(1,12,15)            152.2257         estimate D2E/DX2                !
 ! A80   A(1,12,21)             62.5295         estimate D2E/DX2                !
 ! A81   A(1,12,27)            118.5339         estimate D2E/DX2                !
 ! A82   A(2,12,5)             103.4751         estimate D2E/DX2                !
 ! A83   A(2,12,11)            110.8052         estimate D2E/DX2                !
 ! A84   A(2,12,14)             93.2607         estimate D2E/DX2                !
 ! A85   A(2,12,15)            100.7031         estimate D2E/DX2                !
 ! A86   A(2,12,21)             88.7616         estimate D2E/DX2                !
 ! A87   A(2,12,27)             93.7511         estimate D2E/DX2                !
 ! A88   A(5,12,9)              88.89           estimate D2E/DX2                !
 ! A89   A(5,12,11)             78.1885         estimate D2E/DX2                !
 ! A90   A(5,12,14)             89.8783         estimate D2E/DX2                !
 ! A91   A(5,12,15)            154.949          estimate D2E/DX2                !
 ! A92   A(5,12,27)            131.2748         estimate D2E/DX2                !
 ! A93   A(9,12,14)            147.9569         estimate D2E/DX2                !
 ! A94   A(9,12,15)            110.2281         estimate D2E/DX2                !
 ! A95   A(9,12,21)            117.1624         estimate D2E/DX2                !
 ! A96   A(11,12,14)           154.9609         estimate D2E/DX2                !
 ! A97   A(11,12,15)            99.2724         estimate D2E/DX2                !
 ! A98   A(11,12,21)           125.0724         estimate D2E/DX2                !
 ! A99   A(14,12,15)            82.2651         estimate D2E/DX2                !
 ! A100  A(14,12,27)           134.7571         estimate D2E/DX2                !
 ! A101  A(15,12,21)           127.8364         estimate D2E/DX2                !
 ! A102  A(6,13,10)             85.7409         estimate D2E/DX2                !
 ! A103  A(6,13,16)             93.5434         estimate D2E/DX2                !
 ! A104  A(6,13,17)            124.9396         estimate D2E/DX2                !
 ! A105  A(6,13,37)            133.0902         estimate D2E/DX2                !
 ! A106  A(6,13,39)            130.0128         estimate D2E/DX2                !
 ! A107  A(7,13,8)              95.5028         estimate D2E/DX2                !
 ! A108  A(7,13,10)             83.8201         estimate D2E/DX2                !
 ! A109  A(7,13,16)            108.5205         estimate D2E/DX2                !
 ! A110  A(7,13,36)            135.7816         estimate D2E/DX2                !
 ! A111  A(7,13,37)             84.101          estimate D2E/DX2                !
 ! A112  A(7,13,39)            101.3524         estimate D2E/DX2                !
 ! A113  A(8,13,10)             83.964          estimate D2E/DX2                !
 ! A114  A(8,13,16)             83.3602         estimate D2E/DX2                !
 ! A115  A(8,13,17)             78.8024         estimate D2E/DX2                !
 ! A116  A(8,13,18)             89.8391         estimate D2E/DX2                !
 ! A117  A(8,13,36)            126.4052         estimate D2E/DX2                !
 ! A118  A(8,13,39)            136.8324         estimate D2E/DX2                !
 ! A119  A(10,13,16)           163.0793         estimate D2E/DX2                !
 ! A120  A(10,13,17)            83.8325         estimate D2E/DX2                !
 ! A121  A(10,13,18)           137.6519         estimate D2E/DX2                !
 ! A122  A(10,13,36)            87.0067         estimate D2E/DX2                !
 ! A123  A(10,13,37)            82.0652         estimate D2E/DX2                !
 ! A124  A(10,13,39)           136.879          estimate D2E/DX2                !
 ! A125  A(16,13,17)            82.7479         estimate D2E/DX2                !
 ! A126  A(16,13,36)            91.5366         estimate D2E/DX2                !
 ! A127  A(16,13,37)           110.1022         estimate D2E/DX2                !
 ! A128  A(17,13,18)           135.8825         estimate D2E/DX2                !
 ! A129  A(17,13,37)            98.5493         estimate D2E/DX2                !
 ! A130  A(17,13,39)            90.7019         estimate D2E/DX2                !
 ! A131  A(18,13,36)           128.32           estimate D2E/DX2                !
 ! A132  A(18,13,37)           101.2424         estimate D2E/DX2                !
 ! A133  A(18,13,39)            68.997          estimate D2E/DX2                !
 ! A134  A(18,16,39)            83.1999         estimate D2E/DX2                !
 ! A135  A(13,17,24)            94.6486         estimate D2E/DX2                !
 ! A136  A(24,17,36)            82.344          estimate D2E/DX2                !
 ! A137  A(6,18,16)             96.3429         estimate D2E/DX2                !
 ! A138  A(6,18,19)            124.9433         estimate D2E/DX2                !
 ! A139  A(6,18,43)            137.5565         estimate D2E/DX2                !
 ! A140  A(7,18,16)            110.0617         estimate D2E/DX2                !
 ! A141  A(7,18,20)             97.3166         estimate D2E/DX2                !
 ! A142  A(7,18,43)             98.7756         estimate D2E/DX2                !
 ! A143  A(13,18,19)           129.6804         estimate D2E/DX2                !
 ! A144  A(13,18,20)           107.358          estimate D2E/DX2                !
 ! A145  A(13,18,43)           127.5873         estimate D2E/DX2                !
 ! A146  A(16,18,19)            74.7152         estimate D2E/DX2                !
 ! A147  A(16,18,20)           101.3389         estimate D2E/DX2                !
 ! A148  A(16,18,43)           124.1366         estimate D2E/DX2                !
 ! A149  A(19,18,20)            76.5476         estimate D2E/DX2                !
 ! A150  A(19,18,43)            82.0152         estimate D2E/DX2                !
 ! A151  A(20,18,43)           121.6192         estimate D2E/DX2                !
 ! A152  A(18,19,42)            81.3637         estimate D2E/DX2                !
 ! A153  A(5,21,14)            106.0578         estimate D2E/DX2                !
 ! A154  A(5,21,22)            113.3805         estimate D2E/DX2                !
 ! A155  A(5,21,23)            102.5111         estimate D2E/DX2                !
 ! A156  A(12,21,22)           147.6711         estimate D2E/DX2                !
 ! A157  A(12,21,23)           100.6026         estimate D2E/DX2                !
 ! A158  A(14,21,22)           112.2806         estimate D2E/DX2                !
 ! A159  A(14,21,23)           110.3531         estimate D2E/DX2                !
 ! A160  A(22,21,23)           111.7098         estimate D2E/DX2                !
 ! A161  A(1,23,21)             80.5503         estimate D2E/DX2                !
 ! A162  A(10,24,17)            82.7795         estimate D2E/DX2                !
 ! A163  A(10,24,25)            84.7567         estimate D2E/DX2                !
 ! A164  A(10,24,26)            80.6929         estimate D2E/DX2                !
 ! A165  A(10,24,28)            83.8492         estimate D2E/DX2                !
 ! A166  A(10,24,30)           133.2526         estimate D2E/DX2                !
 ! A167  A(10,24,33)           134.9984         estimate D2E/DX2                !
 ! A168  A(17,24,25)            95.5702         estimate D2E/DX2                !
 ! A169  A(17,24,26)            75.7696         estimate D2E/DX2                !
 ! A170  A(17,24,28)           163.1801         estimate D2E/DX2                !
 ! A171  A(17,24,30)           137.2498         estimate D2E/DX2                !
 ! A172  A(17,24,32)            87.4031         estimate D2E/DX2                !
 ! A173  A(17,24,33)            88.6977         estimate D2E/DX2                !
 ! A174  A(25,24,26)           163.86           estimate D2E/DX2                !
 ! A175  A(25,24,28)            93.3182         estimate D2E/DX2                !
 ! A176  A(25,24,30)           108.0395         estimate D2E/DX2                !
 ! A177  A(25,24,32)           104.9731         estimate D2E/DX2                !
 ! A178  A(26,24,28)            92.0369         estimate D2E/DX2                !
 ! A179  A(26,24,30)            87.1496         estimate D2E/DX2                !
 ! A180  A(26,24,32)            88.4339         estimate D2E/DX2                !
 ! A181  A(26,24,33)           139.3931         estimate D2E/DX2                !
 ! A182  A(28,24,32)           104.0528         estimate D2E/DX2                !
 ! A183  A(28,24,33)           108.0032         estimate D2E/DX2                !
 ! A184  A(30,24,33)            79.2613         estimate D2E/DX2                !
 ! A185  A(24,25,36)            80.0027         estimate D2E/DX2                !
 ! A186  A(33,25,36)            80.6249         estimate D2E/DX2                !
 ! A187  A(9,26,24)             95.2672         estimate D2E/DX2                !
 ! A188  A(24,26,27)            84.3005         estimate D2E/DX2                !
 ! A189  A(9,27,15)            104.1073         estimate D2E/DX2                !
 ! A190  A(9,27,28)            100.4622         estimate D2E/DX2                !
 ! A191  A(9,27,29)            153.336          estimate D2E/DX2                !
 ! A192  A(11,27,15)           100.0038         estimate D2E/DX2                !
 ! A193  A(11,27,26)           108.8213         estimate D2E/DX2                !
 ! A194  A(11,27,28)            81.1941         estimate D2E/DX2                !
 ! A195  A(11,27,29)           154.1997         estimate D2E/DX2                !
 ! A196  A(12,27,26)            97.2022         estimate D2E/DX2                !
 ! A197  A(12,27,28)           135.1795         estimate D2E/DX2                !
 ! A198  A(12,27,29)           131.4201         estimate D2E/DX2                !
 ! A199  A(15,27,26)           106.9503         estimate D2E/DX2                !
 ! A200  A(15,27,28)           149.5997         estimate D2E/DX2                !
 ! A201  A(15,27,29)            79.1517         estimate D2E/DX2                !
 ! A202  A(26,27,28)           101.1992         estimate D2E/DX2                !
 ! A203  A(26,27,29)            95.8623         estimate D2E/DX2                !
 ! A204  A(28,27,29)            86.8823         estimate D2E/DX2                !
 ! A205  A(24,28,27)            82.4251         estimate D2E/DX2                !
 ! A206  A(27,28,30)            81.5243         estimate D2E/DX2                !
 ! A207  A(27,29,30)            81.8816         estimate D2E/DX2                !
 ! A208  A(24,30,29)           111.5            estimate D2E/DX2                !
 ! A209  A(24,30,31)           133.7476         estimate D2E/DX2                !
 ! A210  A(28,30,29)           101.2736         estimate D2E/DX2                !
 ! A211  A(28,30,31)           109.7018         estimate D2E/DX2                !
 ! A212  A(28,30,32)           110.974          estimate D2E/DX2                !
 ! A213  A(29,30,31)           114.4849         estimate D2E/DX2                !
 ! A214  A(29,30,32)           106.6897         estimate D2E/DX2                !
 ! A215  A(31,30,32)           113.093          estimate D2E/DX2                !
 ! A216  A(30,32,33)            98.3897         estimate D2E/DX2                !
 ! A217  A(24,33,34)           134.3563         estimate D2E/DX2                !
 ! A218  A(24,33,35)           110.2969         estimate D2E/DX2                !
 ! A219  A(25,33,32)           110.9016         estimate D2E/DX2                !
 ! A220  A(25,33,34)           109.6905         estimate D2E/DX2                !
 ! A221  A(25,33,35)           101.8112         estimate D2E/DX2                !
 ! A222  A(32,33,34)           113.2385         estimate D2E/DX2                !
 ! A223  A(32,33,35)           105.4603         estimate D2E/DX2                !
 ! A224  A(34,33,35)           115.1226         estimate D2E/DX2                !
 ! A225  A(33,35,36)            81.1232         estimate D2E/DX2                !
 ! A226  A(13,36,25)           101.5118         estimate D2E/DX2                !
 ! A227  A(13,36,35)           152.2524         estimate D2E/DX2                !
 ! A228  A(13,36,38)           103.6176         estimate D2E/DX2                !
 ! A229  A(17,36,25)           102.0698         estimate D2E/DX2                !
 ! A230  A(17,36,35)            95.4541         estimate D2E/DX2                !
 ! A231  A(17,36,37)           108.4028         estimate D2E/DX2                !
 ! A232  A(17,36,38)           107.2981         estimate D2E/DX2                !
 ! A233  A(17,36,39)            95.446          estimate D2E/DX2                !
 ! A234  A(25,36,35)            87.7064         estimate D2E/DX2                !
 ! A235  A(25,36,37)            81.4654         estimate D2E/DX2                !
 ! A236  A(25,36,38)           148.5717         estimate D2E/DX2                !
 ! A237  A(25,36,39)           136.7343         estimate D2E/DX2                !
 ! A238  A(35,36,37)           155.3523         estimate D2E/DX2                !
 ! A239  A(35,36,38)            78.7165         estimate D2E/DX2                !
 ! A240  A(35,36,39)           129.8508         estimate D2E/DX2                !
 ! A241  A(37,36,38)            99.3398         estimate D2E/DX2                !
 ! A242  A(13,39,38)           113.4797         estimate D2E/DX2                !
 ! A243  A(13,39,40)            90.8551         estimate D2E/DX2                !
 ! A244  A(13,39,41)           142.4974         estimate D2E/DX2                !
 ! A245  A(16,39,36)            96.5384         estimate D2E/DX2                !
 ! A246  A(16,39,37)           111.43           estimate D2E/DX2                !
 ! A247  A(16,39,38)           105.6357         estimate D2E/DX2                !
 ! A248  A(16,39,40)           110.8385         estimate D2E/DX2                !
 ! A249  A(16,39,41)            88.7014         estimate D2E/DX2                !
 ! A250  A(36,39,40)           123.2383         estimate D2E/DX2                !
 ! A251  A(36,39,41)           142.2835         estimate D2E/DX2                !
 ! A252  A(37,39,38)           100.594          estimate D2E/DX2                !
 ! A253  A(37,39,40)            70.4526         estimate D2E/DX2                !
 ! A254  A(37,39,41)           154.8368         estimate D2E/DX2                !
 ! A255  A(38,39,40)           143.2285         estimate D2E/DX2                !
 ! A256  A(38,39,41)            87.5903         estimate D2E/DX2                !
 ! A257  A(40,39,41)            88.6987         estimate D2E/DX2                !
 ! A258  A(39,40,43)           111.9347         estimate D2E/DX2                !
 ! A259  A(39,41,42)            99.7298         estimate D2E/DX2                !
 ! A260  A(19,42,41)           112.916          estimate D2E/DX2                !
 ! A261  A(19,42,43)            94.5936         estimate D2E/DX2                !
 ! A262  A(19,42,44)           108.7864         estimate D2E/DX2                !
 ! A263  A(41,42,43)           111.5603         estimate D2E/DX2                !
 ! A264  A(41,42,44)           110.5553         estimate D2E/DX2                !
 ! A265  A(43,42,44)           117.5308         estimate D2E/DX2                !
 ! A266  A(18,43,40)            76.7105         estimate D2E/DX2                !
 ! A267  A(18,43,42)            81.7593         estimate D2E/DX2                !
 ! A268  A(40,43,42)            95.8654         estimate D2E/DX2                !
 ! A269  L(4,9,26,2,-1)        191.1536         estimate D2E/DX2                !
 ! A270  L(6,9,27,1,-1)        192.8064         estimate D2E/DX2                !
 ! A271  L(8,9,11,1,-1)        193.7567         estimate D2E/DX2                !
 ! A272  L(21,12,27,2,-1)      182.5127         estimate D2E/DX2                !
 ! A273  L(6,13,36,10,-1)      172.7477         estimate D2E/DX2                !
 ! A274  L(7,13,17,8,-1)       174.3052         estimate D2E/DX2                !
 ! A275  L(8,13,37,7,-1)       179.6037         estimate D2E/DX2                !
 ! A276  L(7,18,19,16,-1)      184.777          estimate D2E/DX2                !
 ! A277  L(10,24,32,17,-1)     170.1826         estimate D2E/DX2                !
 ! A278  L(4,9,26,2,-2)        188.37           estimate D2E/DX2                !
 ! A279  L(6,9,27,1,-2)        185.8635         estimate D2E/DX2                !
 ! A280  L(8,9,11,1,-2)        175.6659         estimate D2E/DX2                !
 ! A281  L(21,12,27,2,-2)      180.8784         estimate D2E/DX2                !
 ! A282  L(6,13,36,10,-2)      186.3926         estimate D2E/DX2                !
 ! A283  L(7,13,17,8,-2)       168.0516         estimate D2E/DX2                !
 ! A284  L(8,13,37,7,-2)       194.0785         estimate D2E/DX2                !
 ! A285  L(7,18,19,16,-2)      185.2931         estimate D2E/DX2                !
 ! A286  L(10,24,32,17,-2)     171.2226         estimate D2E/DX2                !
 ! D1    D(2,1,3,6)             85.4935         estimate D2E/DX2                !
 ! D2    D(4,1,3,6)            -31.4524         estimate D2E/DX2                !
 ! D3    D(5,1,3,6)           -110.2936         estimate D2E/DX2                !
 ! D4    D(9,1,3,6)             25.4179         estimate D2E/DX2                !
 ! D5    D(12,1,3,6)            80.8354         estimate D2E/DX2                !
 ! D6    D(23,1,3,6)           172.7737         estimate D2E/DX2                !
 ! D7    D(2,1,4,6)            -70.6626         estimate D2E/DX2                !
 ! D8    D(3,1,4,6)             31.5912         estimate D2E/DX2                !
 ! D9    D(5,1,4,6)           -177.6077         estimate D2E/DX2                !
 ! D10   D(12,1,4,6)          -122.7125         estimate D2E/DX2                !
 ! D11   D(23,1,4,6)           105.6541         estimate D2E/DX2                !
 ! D12   D(2,1,5,21)            69.0788         estimate D2E/DX2                !
 ! D13   D(3,1,5,21)           -94.7473         estimate D2E/DX2                !
 ! D14   D(4,1,5,21)          -174.2295         estimate D2E/DX2                !
 ! D15   D(9,1,5,21)           127.4989         estimate D2E/DX2                !
 ! D16   D(23,1,5,21)          -18.6772         estimate D2E/DX2                !
 ! D17   D(3,1,9,6)            -21.4218         estimate D2E/DX2                !
 ! D18   D(3,1,9,8)             15.3949         estimate D2E/DX2                !
 ! D19   D(3,1,9,10)           -72.3566         estimate D2E/DX2                !
 ! D20   D(3,1,9,11)          -160.271          estimate D2E/DX2                !
 ! D21   D(3,1,9,26)            92.4588         estimate D2E/DX2                !
 ! D22   D(3,1,9,27)           152.7147         estimate D2E/DX2                !
 ! D23   D(5,1,9,6)            138.2228         estimate D2E/DX2                !
 ! D24   D(5,1,9,8)            175.0395         estimate D2E/DX2                !
 ! D25   D(5,1,9,10)            87.288          estimate D2E/DX2                !
 ! D26   D(5,1,9,11)            -0.6264         estimate D2E/DX2                !
 ! D27   D(5,1,9,26)          -107.8966         estimate D2E/DX2                !
 ! D28   D(5,1,9,27)           -47.6407         estimate D2E/DX2                !
 ! D29   D(23,1,9,6)          -127.173          estimate D2E/DX2                !
 ! D30   D(23,1,9,8)           -90.3563         estimate D2E/DX2                !
 ! D31   D(23,1,9,10)         -178.1078         estimate D2E/DX2                !
 ! D32   D(23,1,9,11)           93.9777         estimate D2E/DX2                !
 ! D33   D(23,1,9,26)          -13.2924         estimate D2E/DX2                !
 ! D34   D(23,1,9,27)           46.9635         estimate D2E/DX2                !
 ! D35   D(3,1,12,11)         -111.2831         estimate D2E/DX2                !
 ! D36   D(3,1,12,14)           91.7106         estimate D2E/DX2                !
 ! D37   D(3,1,12,15)           -1.597          estimate D2E/DX2                !
 ! D38   D(3,1,12,21)          118.1692         estimate D2E/DX2                !
 ! D39   D(3,1,12,27)          -64.5944         estimate D2E/DX2                !
 ! D40   D(4,1,12,11)           -1.993          estimate D2E/DX2                !
 ! D41   D(4,1,12,14)         -158.9994         estimate D2E/DX2                !
 ! D42   D(4,1,12,15)          107.693          estimate D2E/DX2                !
 ! D43   D(4,1,12,21)         -132.5408         estimate D2E/DX2                !
 ! D44   D(4,1,12,27)           44.6957         estimate D2E/DX2                !
 ! D45   D(23,1,12,11)         159.3978         estimate D2E/DX2                !
 ! D46   D(23,1,12,14)           2.3915         estimate D2E/DX2                !
 ! D47   D(23,1,12,15)         -90.9161         estimate D2E/DX2                !
 ! D48   D(23,1,12,21)          28.85           estimate D2E/DX2                !
 ! D49   D(23,1,12,27)        -153.9135         estimate D2E/DX2                !
 ! D50   D(2,1,23,21)          -87.5614         estimate D2E/DX2                !
 ! D51   D(3,1,23,21)          170.564          estimate D2E/DX2                !
 ! D52   D(4,1,23,21)           95.7299         estimate D2E/DX2                !
 ! D53   D(5,1,23,21)           19.4714         estimate D2E/DX2                !
 ! D54   D(9,1,23,21)          -77.3283         estimate D2E/DX2                !
 ! D55   D(12,1,23,21)         -36.893          estimate D2E/DX2                !
 ! D56   D(1,2,9,12)           -83.8295         estimate D2E/DX2                !
 ! D57   D(1,3,6,4)             30.5598         estimate D2E/DX2                !
 ! D58   D(1,3,6,7)             90.4078         estimate D2E/DX2                !
 ! D59   D(1,3,6,8)            -74.1259         estimate D2E/DX2                !
 ! D60   D(1,3,6,9)            -20.6253         estimate D2E/DX2                !
 ! D61   D(1,3,6,13)           -72.8452         estimate D2E/DX2                !
 ! D62   D(1,3,6,18)          -178.3274         estimate D2E/DX2                !
 ! D63   D(1,3,6,20)          -172.651          estimate D2E/DX2                !
 ! D64   D(1,4,6,3)            -30.3091         estimate D2E/DX2                !
 ! D65   D(1,4,6,7)            175.0595         estimate D2E/DX2                !
 ! D66   D(1,4,6,8)             71.3078         estimate D2E/DX2                !
 ! D67   D(1,4,6,13)           126.7799         estimate D2E/DX2                !
 ! D68   D(1,4,6,18)           178.267          estimate D2E/DX2                !
 ! D69   D(1,4,6,20)           -96.1914         estimate D2E/DX2                !
 ! D70   D(1,5,21,14)          -93.2475         estimate D2E/DX2                !
 ! D71   D(1,5,21,22)          143.092          estimate D2E/DX2                !
 ! D72   D(1,5,21,23)           22.5124         estimate D2E/DX2                !
 ! D73   D(3,6,9,1)             19.6381         estimate D2E/DX2                !
 ! D74   D(3,6,9,2)            -28.8668         estimate D2E/DX2                !
 ! D75   D(3,6,9,10)           169.9218         estimate D2E/DX2                !
 ! D76   D(3,6,9,11)            95.9267         estimate D2E/DX2                !
 ! D77   D(3,6,9,12)            13.9585         estimate D2E/DX2                !
 ! D78   D(3,6,9,26)          -112.6709         estimate D2E/DX2                !
 ! D79   D(7,6,9,1)           -132.8855         estimate D2E/DX2                !
 ! D80   D(7,6,9,2)            178.6096         estimate D2E/DX2                !
 ! D81   D(7,6,9,10)            17.3982         estimate D2E/DX2                !
 ! D82   D(7,6,9,11)           -56.5969         estimate D2E/DX2                !
 ! D83   D(7,6,9,12)          -138.5651         estimate D2E/DX2                !
 ! D84   D(7,6,9,26)            94.8055         estimate D2E/DX2                !
 ! D85   D(13,6,9,1)          -179.2302         estimate D2E/DX2                !
 ! D86   D(13,6,9,2)           132.2648         estimate D2E/DX2                !
 ! D87   D(13,6,9,10)          -28.9465         estimate D2E/DX2                !
 ! D88   D(13,6,9,11)         -102.9417         estimate D2E/DX2                !
 ! D89   D(13,6,9,12)          175.0902         estimate D2E/DX2                !
 ! D90   D(13,6,9,26)           48.4607         estimate D2E/DX2                !
 ! D91   D(18,6,9,1)           178.9628         estimate D2E/DX2                !
 ! D92   D(18,6,9,2)           130.4579         estimate D2E/DX2                !
 ! D93   D(18,6,9,10)          -30.7535         estimate D2E/DX2                !
 ! D94   D(18,6,9,11)         -104.7486         estimate D2E/DX2                !
 ! D95   D(18,6,9,12)          173.2832         estimate D2E/DX2                !
 ! D96   D(18,6,9,26)           46.6538         estimate D2E/DX2                !
 ! D97   D(20,6,9,1)           102.4127         estimate D2E/DX2                !
 ! D98   D(20,6,9,2)            53.9077         estimate D2E/DX2                !
 ! D99   D(20,6,9,10)         -107.3036         estimate D2E/DX2                !
 ! D100  D(20,6,9,11)          178.7012         estimate D2E/DX2                !
 ! D101  D(20,6,9,12)           96.7331         estimate D2E/DX2                !
 ! D102  D(20,6,9,26)          -29.8964         estimate D2E/DX2                !
 ! D103  D(3,6,13,10)           84.1756         estimate D2E/DX2                !
 ! D104  D(3,6,13,16)          -78.8792         estimate D2E/DX2                !
 ! D105  D(3,6,13,17)            4.7463         estimate D2E/DX2                !
 ! D106  D(3,6,13,37)          159.1517         estimate D2E/DX2                !
 ! D107  D(3,6,13,39)         -122.5548         estimate D2E/DX2                !
 ! D108  D(4,6,13,10)          -16.0407         estimate D2E/DX2                !
 ! D109  D(4,6,13,16)         -179.0955         estimate D2E/DX2                !
 ! D110  D(4,6,13,17)          -95.4699         estimate D2E/DX2                !
 ! D111  D(4,6,13,37)           58.9354         estimate D2E/DX2                !
 ! D112  D(4,6,13,39)          137.229          estimate D2E/DX2                !
 ! D113  D(9,6,13,10)           29.0072         estimate D2E/DX2                !
 ! D114  D(9,6,13,16)         -134.0476         estimate D2E/DX2                !
 ! D115  D(9,6,13,17)          -50.422          estimate D2E/DX2                !
 ! D116  D(9,6,13,37)          103.9833         estimate D2E/DX2                !
 ! D117  D(9,6,13,39)         -177.7231         estimate D2E/DX2                !
 ! D118  D(20,6,13,10)        -178.796          estimate D2E/DX2                !
 ! D119  D(20,6,13,16)          18.1493         estimate D2E/DX2                !
 ! D120  D(20,6,13,17)         101.7748         estimate D2E/DX2                !
 ! D121  D(20,6,13,37)        -103.8199         estimate D2E/DX2                !
 ! D122  D(20,6,13,39)         -25.5263         estimate D2E/DX2                !
 ! D123  D(3,6,18,16)          106.8878         estimate D2E/DX2                !
 ! D124  D(3,6,18,19)           31.1231         estimate D2E/DX2                !
 ! D125  D(3,6,18,43)          -89.7368         estimate D2E/DX2                !
 ! D126  D(4,6,18,16)         -114.7952         estimate D2E/DX2                !
 ! D127  D(4,6,18,19)          169.4401         estimate D2E/DX2                !
 ! D128  D(4,6,18,43)           48.5802         estimate D2E/DX2                !
 ! D129  D(8,6,18,16)           -2.0024         estimate D2E/DX2                !
 ! D130  D(8,6,18,19)          -77.7671         estimate D2E/DX2                !
 ! D131  D(8,6,18,43)          161.373          estimate D2E/DX2                !
 ! D132  D(9,6,18,16)          -43.5842         estimate D2E/DX2                !
 ! D133  D(9,6,18,19)         -119.3489         estimate D2E/DX2                !
 ! D134  D(9,6,18,43)          119.7912         estimate D2E/DX2                !
 ! D135  D(6,7,13,18)          -79.5754         estimate D2E/DX2                !
 ! D136  D(13,8,9,1)          -129.5517         estimate D2E/DX2                !
 ! D137  D(13,8,9,2)           176.4816         estimate D2E/DX2                !
 ! D138  D(13,8,9,4)           -74.0733         estimate D2E/DX2                !
 ! D139  D(13,8,9,10)           10.6877         estimate D2E/DX2                !
 ! D140  D(13,8,9,12)          169.5132         estimate D2E/DX2                !
 ! D141  D(13,8,9,26)           94.1085         estimate D2E/DX2                !
 ! D142  D(13,8,9,27)           92.0419         estimate D2E/DX2                !
 ! D143  D(9,8,13,7)            72.4582         estimate D2E/DX2                !
 ! D144  D(9,8,13,10)          -10.711          estimate D2E/DX2                !
 ! D145  D(9,8,13,16)         -179.4793         estimate D2E/DX2                !
 ! D146  D(9,8,13,17)          -95.5935         estimate D2E/DX2                !
 ! D147  D(9,8,13,18)          127.3182         estimate D2E/DX2                !
 ! D148  D(9,8,13,36)          -92.477          estimate D2E/DX2                !
 ! D149  D(9,8,13,39)         -174.4776         estimate D2E/DX2                !
 ! D150  D(1,9,10,13)           81.6497         estimate D2E/DX2                !
 ! D151  D(1,9,10,24)          179.663          estimate D2E/DX2                !
 ! D152  D(2,9,10,13)          -60.3185         estimate D2E/DX2                !
 ! D153  D(2,9,10,24)           37.6948         estimate D2E/DX2                !
 ! D154  D(4,9,10,13)           86.031          estimate D2E/DX2                !
 ! D155  D(4,9,10,24)         -175.9557         estimate D2E/DX2                !
 ! D156  D(6,9,10,13)           35.1657         estimate D2E/DX2                !
 ! D157  D(6,9,10,24)          133.179          estimate D2E/DX2                !
 ! D158  D(8,9,10,13)          -10.8722         estimate D2E/DX2                !
 ! D159  D(8,9,10,24)           87.1411         estimate D2E/DX2                !
 ! D160  D(11,9,10,13)         174.5733         estimate D2E/DX2                !
 ! D161  D(11,9,10,24)         -87.4134         estimate D2E/DX2                !
 ! D162  D(12,9,10,13)        -169.9306         estimate D2E/DX2                !
 ! D163  D(12,9,10,24)         -71.9173         estimate D2E/DX2                !
 ! D164  D(26,9,10,13)         -87.8653         estimate D2E/DX2                !
 ! D165  D(26,9,10,24)          10.148          estimate D2E/DX2                !
 ! D166  D(27,9,10,13)        -134.2133         estimate D2E/DX2                !
 ! D167  D(27,9,10,24)         -36.2            estimate D2E/DX2                !
 ! D168  D(4,9,12,5)             1.7903         estimate D2E/DX2                !
 ! D169  D(4,9,12,14)          -86.2063         estimate D2E/DX2                !
 ! D170  D(4,9,12,15)          165.2298         estimate D2E/DX2                !
 ! D171  D(4,9,12,21)          -37.2777         estimate D2E/DX2                !
 ! D172  D(6,9,12,5)            48.9599         estimate D2E/DX2                !
 ! D173  D(6,9,12,14)          -39.0367         estimate D2E/DX2                !
 ! D174  D(6,9,12,15)         -147.6006         estimate D2E/DX2                !
 ! D175  D(6,9,12,21)            9.8919         estimate D2E/DX2                !
 ! D176  D(8,9,12,5)           115.8234         estimate D2E/DX2                !
 ! D177  D(8,9,12,14)           27.8268         estimate D2E/DX2                !
 ! D178  D(8,9,12,15)          -80.737          estimate D2E/DX2                !
 ! D179  D(8,9,12,21)           76.7555         estimate D2E/DX2                !
 ! D180  D(10,9,12,5)          -95.2919         estimate D2E/DX2                !
 ! D181  D(10,9,12,14)         176.7115         estimate D2E/DX2                !
 ! D182  D(10,9,12,15)          68.1476         estimate D2E/DX2                !
 ! D183  D(10,9,12,21)        -134.3599         estimate D2E/DX2                !
 ! D184  D(26,9,12,5)         -174.1052         estimate D2E/DX2                !
 ! D185  D(26,9,12,14)          97.8982         estimate D2E/DX2                !
 ! D186  D(26,9,12,15)         -10.6656         estimate D2E/DX2                !
 ! D187  D(26,9,12,21)         146.8269         estimate D2E/DX2                !
 ! D188  D(1,9,26,24)         -179.9945         estimate D2E/DX2                !
 ! D189  D(2,9,26,24)          178.9738         estimate D2E/DX2                !
 ! D190  D(6,9,26,24)          -88.5981         estimate D2E/DX2                !
 ! D191  D(8,9,26,24)          -94.8058         estimate D2E/DX2                !
 ! D192  D(10,9,26,24)          -9.6752         estimate D2E/DX2                !
 ! D193  D(11,9,26,24)          72.5082         estimate D2E/DX2                !
 ! D194  D(12,9,26,24)         126.872          estimate D2E/DX2                !
 ! D195  D(1,9,27,15)          -22.894          estimate D2E/DX2                !
 ! D196  D(1,9,27,28)          139.0539         estimate D2E/DX2                !
 ! D197  D(1,9,27,29)         -116.7949         estimate D2E/DX2                !
 ! D198  D(2,9,27,15)           21.9155         estimate D2E/DX2                !
 ! D199  D(2,9,27,28)         -176.1367         estimate D2E/DX2                !
 ! D200  D(2,9,27,29)          -71.9854         estimate D2E/DX2                !
 ! D201  D(4,9,27,15)          -97.1861         estimate D2E/DX2                !
 ! D202  D(4,9,27,28)           64.7618         estimate D2E/DX2                !
 ! D203  D(4,9,27,29)          168.913          estimate D2E/DX2                !
 ! D204  D(8,9,27,15)          104.1207         estimate D2E/DX2                !
 ! D205  D(8,9,27,28)          -93.9314         estimate D2E/DX2                !
 ! D206  D(8,9,27,29)           10.2198         estimate D2E/DX2                !
 ! D207  D(10,9,27,15)        -176.0777         estimate D2E/DX2                !
 ! D208  D(10,9,27,28)         -14.1298         estimate D2E/DX2                !
 ! D209  D(10,9,27,29)          90.0214         estimate D2E/DX2                !
 ! D210  D(9,10,13,6)          -35.573          estimate D2E/DX2                !
 ! D211  D(9,10,13,7)          -85.2865         estimate D2E/DX2                !
 ! D212  D(9,10,13,8)           10.939          estimate D2E/DX2                !
 ! D213  D(9,10,13,16)          52.6013         estimate D2E/DX2                !
 ! D214  D(9,10,13,17)          90.2787         estimate D2E/DX2                !
 ! D215  D(9,10,13,18)         -72.1571         estimate D2E/DX2                !
 ! D216  D(9,10,13,36)         138.0344         estimate D2E/DX2                !
 ! D217  D(9,10,13,37)        -170.1641         estimate D2E/DX2                !
 ! D218  D(9,10,13,39)         174.6911         estimate D2E/DX2                !
 ! D219  D(24,10,13,6)        -136.7294         estimate D2E/DX2                !
 ! D220  D(24,10,13,7)         173.5571         estimate D2E/DX2                !
 ! D221  D(24,10,13,8)         -90.2174         estimate D2E/DX2                !
 ! D222  D(24,10,13,16)        -48.5551         estimate D2E/DX2                !
 ! D223  D(24,10,13,17)        -10.8777         estimate D2E/DX2                !
 ! D224  D(24,10,13,18)       -173.3135         estimate D2E/DX2                !
 ! D225  D(24,10,13,36)         36.8781         estimate D2E/DX2                !
 ! D226  D(24,10,13,37)         88.6795         estimate D2E/DX2                !
 ! D227  D(24,10,13,39)         73.5347         estimate D2E/DX2                !
 ! D228  D(9,10,24,17)         -86.7524         estimate D2E/DX2                !
 ! D229  D(9,10,24,25)         176.9394         estimate D2E/DX2                !
 ! D230  D(9,10,24,26)         -10.0688         estimate D2E/DX2                !
 ! D231  D(9,10,24,28)          83.0201         estimate D2E/DX2                !
 ! D232  D(9,10,24,30)          67.0243         estimate D2E/DX2                !
 ! D233  D(9,10,24,33)        -167.5987         estimate D2E/DX2                !
 ! D234  D(13,10,24,17)         10.8927         estimate D2E/DX2                !
 ! D235  D(13,10,24,25)        -85.4156         estimate D2E/DX2                !
 ! D236  D(13,10,24,26)         87.5763         estimate D2E/DX2                !
 ! D237  D(13,10,24,28)       -179.3348         estimate D2E/DX2                !
 ! D238  D(13,10,24,30)        164.6694         estimate D2E/DX2                !
 ! D239  D(13,10,24,33)        -69.9536         estimate D2E/DX2                !
 ! D240  D(9,11,12,27)         -81.6006         estimate D2E/DX2                !
 ! D241  D(1,12,21,22)         143.3802         estimate D2E/DX2                !
 ! D242  D(1,12,21,23)         -34.7951         estimate D2E/DX2                !
 ! D243  D(2,12,21,22)        -170.0458         estimate D2E/DX2                !
 ! D244  D(2,12,21,23)          11.779          estimate D2E/DX2                !
 ! D245  D(9,12,21,22)         139.6235         estimate D2E/DX2                !
 ! D246  D(9,12,21,23)         -38.5517         estimate D2E/DX2                !
 ! D247  D(11,12,21,22)         75.1879         estimate D2E/DX2                !
 ! D248  D(11,12,21,23)       -102.9873         estimate D2E/DX2                !
 ! D249  D(15,12,21,22)        -67.4293         estimate D2E/DX2                !
 ! D250  D(15,12,21,23)        114.3954         estimate D2E/DX2                !
 ! D251  D(1,12,27,26)          42.5637         estimate D2E/DX2                !
 ! D252  D(1,12,27,28)         -71.3203         estimate D2E/DX2                !
 ! D253  D(1,12,27,29)         146.9688         estimate D2E/DX2                !
 ! D254  D(2,12,27,26)          -5.2699         estimate D2E/DX2                !
 ! D255  D(2,12,27,28)        -119.1539         estimate D2E/DX2                !
 ! D256  D(2,12,27,29)          99.1353         estimate D2E/DX2                !
 ! D257  D(5,12,27,26)         106.339          estimate D2E/DX2                !
 ! D258  D(5,12,27,28)          -7.5451         estimate D2E/DX2                !
 ! D259  D(5,12,27,29)        -149.2559         estimate D2E/DX2                !
 ! D260  D(14,12,27,26)       -103.6234         estimate D2E/DX2                !
 ! D261  D(14,12,27,28)        142.4925         estimate D2E/DX2                !
 ! D262  D(14,12,27,29)          0.7817         estimate D2E/DX2                !
 ! D263  D(6,13,17,24)          91.174          estimate D2E/DX2                !
 ! D264  D(8,13,17,24)          95.8072         estimate D2E/DX2                !
 ! D265  D(10,13,17,24)         10.7652         estimate D2E/DX2                !
 ! D266  D(16,13,17,24)       -179.5654         estimate D2E/DX2                !
 ! D267  D(18,13,17,24)        173.7863         estimate D2E/DX2                !
 ! D268  D(37,13,17,24)        -70.2219         estimate D2E/DX2                !
 ! D269  D(39,13,17,24)       -126.3642         estimate D2E/DX2                !
 ! D270  D(8,13,18,19)          76.6547         estimate D2E/DX2                !
 ! D271  D(8,13,18,20)         -10.0563         estimate D2E/DX2                !
 ! D272  D(8,13,18,43)        -169.0877         estimate D2E/DX2                !
 ! D273  D(10,13,18,19)        157.4953         estimate D2E/DX2                !
 ! D274  D(10,13,18,20)         70.7843         estimate D2E/DX2                !
 ! D275  D(10,13,18,43)        -88.2471         estimate D2E/DX2                !
 ! D276  D(17,13,18,19)          3.0258         estimate D2E/DX2                !
 ! D277  D(17,13,18,20)        -83.6852         estimate D2E/DX2                !
 ! D278  D(17,13,18,43)        117.2834         estimate D2E/DX2                !
 ! D279  D(36,13,18,19)        -62.305          estimate D2E/DX2                !
 ! D280  D(36,13,18,20)       -149.0159         estimate D2E/DX2                !
 ! D281  D(36,13,18,43)         51.9527         estimate D2E/DX2                !
 ! D282  D(37,13,18,19)       -111.9808         estimate D2E/DX2                !
 ! D283  D(37,13,18,20)        161.3082         estimate D2E/DX2                !
 ! D284  D(37,13,18,43)          2.2768         estimate D2E/DX2                !
 ! D285  D(39,13,18,19)        -64.8208         estimate D2E/DX2                !
 ! D286  D(39,13,18,20)       -151.5318         estimate D2E/DX2                !
 ! D287  D(39,13,18,43)         49.4368         estimate D2E/DX2                !
 ! D288  D(7,13,36,25)         -65.3208         estimate D2E/DX2                !
 ! D289  D(7,13,36,35)        -172.7439         estimate D2E/DX2                !
 ! D290  D(7,13,36,38)          95.6474         estimate D2E/DX2                !
 ! D291  D(8,13,36,25)          92.9036         estimate D2E/DX2                !
 ! D292  D(8,13,36,35)         -14.5194         estimate D2E/DX2                !
 ! D293  D(8,13,36,38)        -106.1282         estimate D2E/DX2                !
 ! D294  D(10,13,36,25)         12.6559         estimate D2E/DX2                !
 ! D295  D(10,13,36,35)        -94.7671         estimate D2E/DX2                !
 ! D296  D(10,13,36,38)        173.6242         estimate D2E/DX2                !
 ! D297  D(16,13,36,25)        175.7843         estimate D2E/DX2                !
 ! D298  D(16,13,36,35)         68.3613         estimate D2E/DX2                !
 ! D299  D(16,13,36,38)        -23.2475         estimate D2E/DX2                !
 ! D300  D(18,13,36,25)       -141.7628         estimate D2E/DX2                !
 ! D301  D(18,13,36,35)        110.8142         estimate D2E/DX2                !
 ! D302  D(18,13,36,38)         19.2054         estimate D2E/DX2                !
 ! D303  D(6,13,39,38)         152.6208         estimate D2E/DX2                !
 ! D304  D(6,13,39,40)         -55.7464         estimate D2E/DX2                !
 ! D305  D(6,13,39,41)          33.2302         estimate D2E/DX2                !
 ! D306  D(7,13,39,38)        -161.4727         estimate D2E/DX2                !
 ! D307  D(7,13,39,40)          -9.8399         estimate D2E/DX2                !
 ! D308  D(7,13,39,41)          79.1368         estimate D2E/DX2                !
 ! D309  D(8,13,39,38)          87.6108         estimate D2E/DX2                !
 ! D310  D(8,13,39,40)        -120.7564         estimate D2E/DX2                !
 ! D311  D(8,13,39,41)         -31.7797         estimate D2E/DX2                !
 ! D312  D(10,13,39,38)        -68.391          estimate D2E/DX2                !
 ! D313  D(10,13,39,40)         83.2417         estimate D2E/DX2                !
 ! D314  D(10,13,39,41)        172.2184         estimate D2E/DX2                !
 ! D315  D(17,13,39,38)         13.3235         estimate D2E/DX2                !
 ! D316  D(17,13,39,40)        164.9563         estimate D2E/DX2                !
 ! D317  D(17,13,39,41)       -106.0671         estimate D2E/DX2                !
 ! D318  D(18,13,39,38)        153.1735         estimate D2E/DX2                !
 ! D319  D(18,13,39,40)        -55.1937         estimate D2E/DX2                !
 ! D320  D(18,13,39,41)         33.7829         estimate D2E/DX2                !
 ! D321  D(39,16,18,6)         122.1166         estimate D2E/DX2                !
 ! D322  D(39,16,18,7)          71.9544         estimate D2E/DX2                !
 ! D323  D(39,16,18,19)       -113.3388         estimate D2E/DX2                !
 ! D324  D(39,16,18,20)        174.1651         estimate D2E/DX2                !
 ! D325  D(39,16,18,43)        -44.3937         estimate D2E/DX2                !
 ! D326  D(18,16,39,36)       -125.3697         estimate D2E/DX2                !
 ! D327  D(18,16,39,37)        -72.4243         estimate D2E/DX2                !
 ! D328  D(18,16,39,38)        179.2183         estimate D2E/DX2                !
 ! D329  D(18,16,39,40)          3.9726         estimate D2E/DX2                !
 ! D330  D(18,16,39,41)         92.0852         estimate D2E/DX2                !
 ! D331  D(13,17,24,10)        -10.5702         estimate D2E/DX2                !
 ! D332  D(13,17,24,25)         73.4079         estimate D2E/DX2                !
 ! D333  D(13,17,24,26)        -92.7509         estimate D2E/DX2                !
 ! D334  D(13,17,24,28)        -48.1656         estimate D2E/DX2                !
 ! D335  D(13,17,24,30)       -162.2684         estimate D2E/DX2                !
 ! D336  D(13,17,24,32)        178.2072         estimate D2E/DX2                !
 ! D337  D(13,17,24,33)        125.1389         estimate D2E/DX2                !
 ! D338  D(36,17,24,10)        -84.8731         estimate D2E/DX2                !
 ! D339  D(36,17,24,25)         -0.895          estimate D2E/DX2                !
 ! D340  D(36,17,24,26)       -167.0538         estimate D2E/DX2                !
 ! D341  D(36,17,24,28)       -122.4685         estimate D2E/DX2                !
 ! D342  D(36,17,24,30)        123.4288         estimate D2E/DX2                !
 ! D343  D(36,17,24,32)        103.9043         estimate D2E/DX2                !
 ! D344  D(36,17,24,33)         50.836          estimate D2E/DX2                !
 ! D345  D(24,17,36,25)          0.8861         estimate D2E/DX2                !
 ! D346  D(24,17,36,35)        -87.9281         estimate D2E/DX2                !
 ! D347  D(24,17,36,37)         85.7917         estimate D2E/DX2                !
 ! D348  D(24,17,36,38)       -167.7837         estimate D2E/DX2                !
 ! D349  D(24,17,36,39)        141.0971         estimate D2E/DX2                !
 ! D350  D(6,18,19,42)        -177.6877         estimate D2E/DX2                !
 ! D351  D(13,18,19,42)         99.6628         estimate D2E/DX2                !
 ! D352  D(16,18,19,42)         95.2492         estimate D2E/DX2                !
 ! D353  D(20,18,19,42)       -158.7923         estimate D2E/DX2                !
 ! D354  D(43,18,19,42)        -33.4899         estimate D2E/DX2                !
 ! D355  D(6,18,43,40)         -98.2081         estimate D2E/DX2                !
 ! D356  D(6,18,43,42)         163.7263         estimate D2E/DX2                !
 ! D357  D(7,18,43,40)         -59.9025         estimate D2E/DX2                !
 ! D358  D(7,18,43,42)        -157.9681         estimate D2E/DX2                !
 ! D359  D(13,18,43,40)         -7.8121         estimate D2E/DX2                !
 ! D360  D(13,18,43,42)       -105.8777         estimate D2E/DX2                !
 ! D361  D(16,18,43,40)         61.6992         estimate D2E/DX2                !
 ! D362  D(16,18,43,42)        -36.3664         estimate D2E/DX2                !
 ! D363  D(19,18,43,40)        127.072          estimate D2E/DX2                !
 ! D364  D(19,18,43,42)         29.0064         estimate D2E/DX2                !
 ! D365  D(20,18,43,40)       -164.165          estimate D2E/DX2                !
 ! D366  D(20,18,43,42)         97.7694         estimate D2E/DX2                !
 ! D367  D(18,19,42,41)        -82.5981         estimate D2E/DX2                !
 ! D368  D(18,19,42,43)         33.1375         estimate D2E/DX2                !
 ! D369  D(18,19,42,44)        154.2781         estimate D2E/DX2                !
 ! D370  D(5,21,23,1)          -21.555          estimate D2E/DX2                !
 ! D371  D(12,21,23,1)          35.6679         estimate D2E/DX2                !
 ! D372  D(14,21,23,1)          91.059          estimate D2E/DX2                !
 ! D373  D(22,21,23,1)        -143.2819         estimate D2E/DX2                !
 ! D374  D(10,24,25,36)         83.0069         estimate D2E/DX2                !
 ! D375  D(17,24,25,36)          0.8098         estimate D2E/DX2                !
 ! D376  D(26,24,25,36)         57.3405         estimate D2E/DX2                !
 ! D377  D(28,24,25,36)        166.5131         estimate D2E/DX2                !
 ! D378  D(30,24,25,36)       -143.0629         estimate D2E/DX2                !
 ! D379  D(32,24,25,36)        -87.9845         estimate D2E/DX2                !
 ! D380  D(10,24,26,9)           9.5455         estimate D2E/DX2                !
 ! D381  D(10,24,26,27)         84.9342         estimate D2E/DX2                !
 ! D382  D(17,24,26,9)          94.3913         estimate D2E/DX2                !
 ! D383  D(17,24,26,27)        169.7801         estimate D2E/DX2                !
 ! D384  D(25,24,26,9)          35.4627         estimate D2E/DX2                !
 ! D385  D(25,24,26,27)        110.8515         estimate D2E/DX2                !
 ! D386  D(28,24,26,9)         -73.8814         estimate D2E/DX2                !
 ! D387  D(28,24,26,27)          1.5074         estimate D2E/DX2                !
 ! D388  D(30,24,26,9)        -125.1531         estimate D2E/DX2                !
 ! D389  D(30,24,26,27)        -49.7643         estimate D2E/DX2                !
 ! D390  D(32,24,26,9)        -177.8913         estimate D2E/DX2                !
 ! D391  D(32,24,26,27)       -102.5025         estimate D2E/DX2                !
 ! D392  D(33,24,26,9)         165.0111         estimate D2E/DX2                !
 ! D393  D(33,24,26,27)       -119.6001         estimate D2E/DX2                !
 ! D394  D(10,24,28,27)        -81.7514         estimate D2E/DX2                !
 ! D395  D(17,24,28,27)        -44.2524         estimate D2E/DX2                !
 ! D396  D(25,24,28,27)       -166.1091         estimate D2E/DX2                !
 ! D397  D(26,24,28,27)         -1.3414         estimate D2E/DX2                !
 ! D398  D(32,24,28,27)         87.5534         estimate D2E/DX2                !
 ! D399  D(33,24,28,27)        142.7877         estimate D2E/DX2                !
 ! D400  D(10,24,30,29)        -68.5199         estimate D2E/DX2                !
 ! D401  D(10,24,30,31)        105.0387         estimate D2E/DX2                !
 ! D402  D(17,24,30,29)         71.2548         estimate D2E/DX2                !
 ! D403  D(17,24,30,31)       -115.1865         estimate D2E/DX2                !
 ! D404  D(25,24,30,29)       -168.5661         estimate D2E/DX2                !
 ! D405  D(25,24,30,31)          4.9926         estimate D2E/DX2                !
 ! D406  D(26,24,30,29)          5.8655         estimate D2E/DX2                !
 ! D407  D(26,24,30,31)        179.4242         estimate D2E/DX2                !
 ! D408  D(33,24,30,29)        147.4131         estimate D2E/DX2                !
 ! D409  D(33,24,30,31)        -39.0282         estimate D2E/DX2                !
 ! D410  D(10,24,33,34)       -103.3488         estimate D2E/DX2                !
 ! D411  D(10,24,33,35)         70.7611         estimate D2E/DX2                !
 ! D412  D(17,24,33,34)        178.2188         estimate D2E/DX2                !
 ! D413  D(17,24,33,35)         -7.6714         estimate D2E/DX2                !
 ! D414  D(26,24,33,34)        112.0659         estimate D2E/DX2                !
 ! D415  D(26,24,33,35)        -73.8242         estimate D2E/DX2                !
 ! D416  D(28,24,33,34)         -3.8142         estimate D2E/DX2                !
 ! D417  D(28,24,33,35)        170.2956         estimate D2E/DX2                !
 ! D418  D(30,24,33,34)         39.4623         estimate D2E/DX2                !
 ! D419  D(30,24,33,35)       -146.4278         estimate D2E/DX2                !
 ! D420  D(36,25,33,32)         87.5087         estimate D2E/DX2                !
 ! D421  D(36,25,33,34)       -146.6708         estimate D2E/DX2                !
 ! D422  D(36,25,33,35)        -24.2921         estimate D2E/DX2                !
 ! D423  D(24,25,36,13)        -59.4517         estimate D2E/DX2                !
 ! D424  D(24,25,36,17)         -0.9372         estimate D2E/DX2                !
 ! D425  D(24,25,36,35)         94.1523         estimate D2E/DX2                !
 ! D426  D(24,25,36,37)       -108.0562         estimate D2E/DX2                !
 ! D427  D(24,25,36,38)        157.9789         estimate D2E/DX2                !
 ! D428  D(24,25,36,39)       -112.5779         estimate D2E/DX2                !
 ! D429  D(33,25,36,13)       -133.5891         estimate D2E/DX2                !
 ! D430  D(33,25,36,17)        -75.0746         estimate D2E/DX2                !
 ! D431  D(33,25,36,35)         20.0149         estimate D2E/DX2                !
 ! D432  D(33,25,36,37)        177.8063         estimate D2E/DX2                !
 ! D433  D(33,25,36,38)         83.8415         estimate D2E/DX2                !
 ! D434  D(33,25,36,39)        173.2846         estimate D2E/DX2                !
 ! D435  D(24,26,27,11)        -85.9143         estimate D2E/DX2                !
 ! D436  D(24,26,27,12)       -140.429          estimate D2E/DX2                !
 ! D437  D(24,26,27,15)        166.8834         estimate D2E/DX2                !
 ! D438  D(24,26,27,28)         -1.5034         estimate D2E/DX2                !
 ! D439  D(24,26,27,29)         86.4676         estimate D2E/DX2                !
 ! D440  D(9,27,28,24)          60.4163         estimate D2E/DX2                !
 ! D441  D(9,27,28,30)         134.4653         estimate D2E/DX2                !
 ! D442  D(11,27,28,24)        109.2017         estimate D2E/DX2                !
 ! D443  D(11,27,28,30)       -176.7493         estimate D2E/DX2                !
 ! D444  D(12,27,28,24)        113.9835         estimate D2E/DX2                !
 ! D445  D(12,27,28,30)       -171.9674         estimate D2E/DX2                !
 ! D446  D(15,27,28,24)       -156.018          estimate D2E/DX2                !
 ! D447  D(15,27,28,30)        -81.9689         estimate D2E/DX2                !
 ! D448  D(26,27,28,24)          1.616          estimate D2E/DX2                !
 ! D449  D(26,27,28,30)         75.665          estimate D2E/DX2                !
 ! D450  D(29,27,28,24)        -93.7485         estimate D2E/DX2                !
 ! D451  D(29,27,28,30)        -19.6995         estimate D2E/DX2                !
 ! D452  D(9,27,29,30)         -86.3817         estimate D2E/DX2                !
 ! D453  D(11,27,29,30)         83.1769         estimate D2E/DX2                !
 ! D454  D(12,27,29,30)        174.9432         estimate D2E/DX2                !
 ! D455  D(15,27,29,30)        173.7488         estimate D2E/DX2                !
 ! D456  D(26,27,29,30)        -80.0667         estimate D2E/DX2                !
 ! D457  D(28,27,29,30)         20.8825         estimate D2E/DX2                !
 ! D458  D(27,28,30,29)         23.8612         estimate D2E/DX2                !
 ! D459  D(27,28,30,31)        145.2113         estimate D2E/DX2                !
 ! D460  D(27,28,30,32)        -89.0954         estimate D2E/DX2                !
 ! D461  D(27,29,30,24)         34.0282         estimate D2E/DX2                !
 ! D462  D(27,29,30,28)        -22.9254         estimate D2E/DX2                !
 ! D463  D(27,29,30,31)       -140.8628         estimate D2E/DX2                !
 ! D464  D(27,29,30,32)         93.2298         estimate D2E/DX2                !
 ! D465  D(28,30,32,33)        -61.9477         estimate D2E/DX2                !
 ! D466  D(29,30,32,33)       -171.4294         estimate D2E/DX2                !
 ! D467  D(31,30,32,33)         61.8286         estimate D2E/DX2                !
 ! D468  D(30,32,33,25)         61.838          estimate D2E/DX2                !
 ! D469  D(30,32,33,34)        -61.9763         estimate D2E/DX2                !
 ! D470  D(30,32,33,35)        171.2862         estimate D2E/DX2                !
 ! D471  D(24,33,35,36)        -33.4764         estimate D2E/DX2                !
 ! D472  D(25,33,35,36)         23.3039         estimate D2E/DX2                !
 ! D473  D(32,33,35,36)        -92.5451         estimate D2E/DX2                !
 ! D474  D(34,33,35,36)        141.8752         estimate D2E/DX2                !
 ! D475  D(33,35,36,13)         89.3575         estimate D2E/DX2                !
 ! D476  D(33,35,36,17)         80.6065         estimate D2E/DX2                !
 ! D477  D(33,35,36,25)        -21.3049         estimate D2E/DX2                !
 ! D478  D(33,35,36,37)        -84.9817         estimate D2E/DX2                !
 ! D479  D(33,35,36,38)       -172.8029         estimate D2E/DX2                !
 ! D480  D(33,35,36,39)       -177.6296         estimate D2E/DX2                !
 ! D481  D(39,36,37,13)        -71.9959         estimate D2E/DX2                !
 ! D482  D(17,36,39,16)          3.3013         estimate D2E/DX2                !
 ! D483  D(17,36,39,40)       -116.9115         estimate D2E/DX2                !
 ! D484  D(17,36,39,41)         99.6695         estimate D2E/DX2                !
 ! D485  D(25,36,39,16)        117.3657         estimate D2E/DX2                !
 ! D486  D(25,36,39,40)         -2.8471         estimate D2E/DX2                !
 ! D487  D(25,36,39,41)       -146.2661         estimate D2E/DX2                !
 ! D488  D(35,36,39,16)        -98.4664         estimate D2E/DX2                !
 ! D489  D(35,36,39,40)        141.3208         estimate D2E/DX2                !
 ! D490  D(35,36,39,41)         -2.0982         estimate D2E/DX2                !
 ! D491  D(13,39,40,43)         88.6565         estimate D2E/DX2                !
 ! D492  D(16,39,40,43)         34.2779         estimate D2E/DX2                !
 ! D493  D(36,39,40,43)        147.551          estimate D2E/DX2                !
 ! D494  D(37,39,40,43)        140.5204         estimate D2E/DX2                !
 ! D495  D(38,39,40,43)       -138.06           estimate D2E/DX2                !
 ! D496  D(41,39,40,43)        -53.8366         estimate D2E/DX2                !
 ! D497  D(13,39,41,42)        -40.427          estimate D2E/DX2                !
 ! D498  D(16,39,41,42)        -61.5995         estimate D2E/DX2                !
 ! D499  D(36,39,41,42)       -160.6249         estimate D2E/DX2                !
 ! D500  D(37,39,41,42)         82.6186         estimate D2E/DX2                !
 ! D501  D(38,39,41,42)       -167.3103         estimate D2E/DX2                !
 ! D502  D(40,39,41,42)         49.2817         estimate D2E/DX2                !
 ! D503  D(39,40,43,18)        -44.9957         estimate D2E/DX2                !
 ! D504  D(39,40,43,42)         35.0818         estimate D2E/DX2                !
 ! D505  D(39,41,42,19)         69.2096         estimate D2E/DX2                !
 ! D506  D(39,41,42,43)        -35.8919         estimate D2E/DX2                !
 ! D507  D(39,41,42,44)       -168.6543         estimate D2E/DX2                !
 ! D508  D(19,42,43,18)        -37.3514         estimate D2E/DX2                !
 ! D509  D(19,42,43,40)       -112.9703         estimate D2E/DX2                !
 ! D510  D(41,42,43,18)         79.506          estimate D2E/DX2                !
 ! D511  D(41,42,43,40)          3.8871         estimate D2E/DX2                !
 ! D512  D(44,42,43,18)       -151.3187         estimate D2E/DX2                !
 ! D513  D(44,42,43,40)        133.0624         estimate D2E/DX2                !
 --------------------------------------------------------------------------------
 Trust Radius=3.00D-01 FncErr=1.00D-07 GrdErr=1.00D-06 EigMax=2.50D+02 EigMin=1.00D-04
[...]
 ,-0.00018834,0.00002585,0.00000974,0.00000320,0.00002149,-0.00008101,0
 .00013332,-0.00002862,-0.00005481,0.00006742,0.00001594,0.00001415,-0.
 00060573,0.00040990,0.00054415,-0.00002303,0.00000181,-0.00015700,-0.0
 0036575,-0.00046413,0.00000028,0.00069543,0.00028704,-0.00025415,-0.00
 016785,-0.00047703,-0.00044639,0.00007333,-0.00001261,0.00008722,-0.00
 018721,-0.00028365,-0.00014750,-0.00035746,0.00252855,-0.00282620,0.00
 000407,-0.00001267,0.00001029,-0.00008188,0.00006765,-0.00012888,-0.00
 648064,0.00229762,-0.00447175,0.00024662,0.00025094,0.00058223,0.00066
 986,-0.00106062,0.00047605,0.00393924,0.00521422,0.00843874,-0.0005262
 1,0.00050185,-0.00077827,-0.00007767,-0.00005652,0.00010462,-0.0000090
 5,0.00003466,-0.00001319,0.00005507,-0.00004547,0.00000651,-0.00097030
 ,0.00066262,-0.00066622,-0.00037339,-0.00000062,-0.00009636,0.00004042
 ,-0.00009320,0.00016714,0.00013871,-0.00019546,0.00016877,-0.00008358,
 0.00004769,0.00019604,-0.00002750,0.00006101,-0.00015702,0.00015223,0.
 00002365,0.00016931,-0.00001043,-0.00000803,0.00002811,-0.00002213,-0.
 00000626,-0.00004603,0.00080103,0.00037238,-0.00015668,-0.00011318,-0.
 00007233,0.00014577,0.00024692,-0.00019038,0.00003283,-0.00113084,-0.0
 0081889,0.00147969,-0.00476764,0.00402826,0.00177922,-0.00662346,0.000
 10940,0.00149533,-0.00802286,-0.00590205,-0.00198835,-0.00087114,0.003
 12214,0.00168793,0.06542849,0.00012936,0.00016340,0.00004930,-0.000130
 38,-0.00001714,0.00000050,-0.00008928,-0.00008713,-0.00011278,0.000049
 08,0.00003419,-0.00004175,0.00004998,0.00000888,0.00001517,-0.00029613
 ,0.00045952,-0.00031092,-0.00056440,-0.00036919,-0.00046621,0.00012567
 ,-0.00009136,-0.00018262,0.00030750,0.00007136,0.00012937,-0.00015060,
 -0.00007651,-0.00029969,0.00003737,-0.00001605,-0.00001603,-0.00019369
 ,-0.00017589,-0.00010279,0.00048020,-0.00021803,0.00106990,0.00000778,
 0.00000086,0.00001602,0.00002421,0.00005073,-0.00002618,0.00163006,0.0
 0064149,0.00101244,0.00008297,-0.00015992,-0.00003445,0.00175777,-0.00
 062325,0.00251317,0.00648173,0.00264185,0.00621776,-0.00048858,0.00007
 992,-0.00125836,-0.00002463,-0.00000400,0.00001059,-0.00000033,0.00000
 107,0.00000232,0.00002286,-0.00001082,0.00000609,-0.00047969,0.0002236
 5,-0.00026655,0.00002011,-0.00018065,0.00025805,0.00003739,-0.00003765
 ,0.00004968,-0.00001322,-0.00002588,0.00001872,0.00005327,-0.00003431,
 -0.00003636,-0.00000655,0.00002106,-0.00003769,0.00004148,-0.00005745,
 0.00003586,0.00000937,0.00000541,0.00001027,0.00000486,-0.00003835,0.0
 0001860,0.00003875,0.00007278,0.00012419,-0.00001320,-0.00004666,-0.00
 001337,0.00004100,0.00006890,-0.00002601,0.00149420,0.00093494,-0.0010
 1930,0.00002164,0.00076456,0.00144824,-0.00312450,-0.00005247,0.000718
 07,0.01040256,-0.00960608,-0.00213996,0.00595971,-0.00660195,-0.002735
 46,0.03422354,0.09688093,0.00002078,-0.00014776,-0.00005512,0.00011369
 ,0.00000029,-0.00003683,-0.00003517,0.00006167,0.00003869,-0.00016411,
 -0.00003713,0.00010898,-0.00006039,-0.00001177,-0.00001182,0.00034372,
 -0.00024117,-0.00007796,0.00023402,0.00020422,0.00015782,0.00018035,0.
 00038476,0.00013461,-0.00023546,0.00001523,0.00024396,-0.00000903,-0.0
 0009059,0.00046588,-0.00003796,0.00001567,0.00000055,0.00018238,0.0001
 6936,0.00009183,0.00111631,-0.00169469,0.00076084,-0.00000458,0.000004
 28,-0.00000440,0.00000630,-0.00007329,0.00006715,-0.00555488,0.0005526
 7,-0.00161147,-0.00015881,0.00016207,-0.00012852,-0.00021099,0.0000144
 0,-0.00091715,-0.00119137,0.00273716,-0.00719716,0.00013019,-0.0004748
 9,0.00069467,0.00004636,0.00003582,-0.00006269,0.00000381,-0.00002066,
 0.00000804,-0.00004934,0.00003581,-0.00000429,0.00083562,-0.00015703,0
 .00059620,0.00000716,0.00007465,-0.00015439,-0.00005409,0.00003289,-0.
 00006901,-0.00008388,0.00011136,-0.00017746,0.00003225,0.00000759,-0.0
 0005672,0.00001798,-0.00002223,0.00007617,-0.00008516,-0.00001479,-0.0
 0007525,0.00000476,0.00000117,-0.00002123,-0.00000133,-0.00002061,0.00
 003440,-0.00046475,-0.00010026,-0.00002620,0.00007019,0.00004603,-0.00
 004803,-0.00006972,0.00012252,-0.00005967,0.00007273,-0.00070923,0.000
 84087,0.00045170,-0.00083763,0.00087733,0.00248002,-0.00008804,-0.0004
 4265,-0.01060466,0.00669107,-0.01158175,0.00246743,-0.00493343,-0.0011
 2991,-0.03028753,-0.07653572,0.08767590,0.00031505,0.00055017,0.000652
 76,-0.00052518,-0.00011052,0.00006894,0.00009256,-0.00047796,-0.000118
 80,0.00049776,0.00023503,-0.00052669,0.00020938,0.00001496,0.00000896,
 -0.00087276,0.00166776,0.00050381,-0.00177543,0.00026265,-0.00201731,-
 0.00026552,-0.00020044,0.00013466,0.00099689,0.00006138,-0.00064176,-0
 .00005825,0.00028181,-0.00002350,0.00033397,0.00014598,-0.00003869,-0.
 00092912,-0.00092131,-0.00036373,0.00292505,-0.00180073,0.00040872,-0.
 00002211,-0.00016117,0.00021554,0.00024878,0.00020160,0.00000598,-0.00
 344401,0.00056750,0.00027611,-0.00005041,-0.00016575,0.00015911,-0.007
 55771,0.00391429,0.00181417,-0.03532601,-0.01105101,-0.05380185,-0.000
 98887,0.00081685,-0.00246758,-0.00009244,0.00074007,-0.00015685,0.0002
 0795,-0.00047660,0.00021768,0.00013738,-0.00013386,0.00009176,0.000363
 81,0.00048874,-0.00011114,-0.00003866,-0.00019475,0.00009910,-0.000103
 85,-0.00010519,0.00000322,-0.00026965,-0.00004732,-0.00023320,0.000000
 97,-0.00015752,-0.00017368,0.00006234,0.00004564,0.00005670,-0.0003272
 2,-0.00008320,0.00022491,0.00024505,0.00005418,-0.00028559,-0.00001713
 ,-0.00012230,0.00009944,-0.00011411,0.00019363,0.00066298,0.00026681,0
 .00001654,-0.00038094,0.00016371,0.00001457,-0.00021672,-0.00037420,-0
 .00033128,-0.00023784,0.00037992,-0.00093402,0.00024790,0.00037437,-0.
 00061013,0.00060162,-0.01018754,0.00384952,0.00132887,-0.00403377,0.00
 252192,0.00553083,-0.03976572,-0.05072689,0.03246309,0.40475130,0.0000
 7192,-0.00025484,-0.00019969,0.00038113,0.00001406,0.00000067,0.000023
 75,0.00009288,0.00003513,-0.00004948,0.00003617,0.00019917,-0.00010934
 ,0.00000471,-0.00001498,-0.00038589,-0.00175274,-0.00060034,0.00285204
 ,0.00017397,-0.00005686,-0.00008362,0.00052475,0.00016187,-0.00130819,
 -0.00050064,-0.00009318,0.00068743,0.00033874,0.00064836,-0.00014056,-
 0.00001885,-0.00004370,0.00038768,0.00043484,0.00034012,-0.00238543,-0
 .00367731,-0.00247204,0.00000489,0.00003764,-0.00006143,-0.00000264,-0
 .00008864,0.00008416,-0.00317352,-0.00164779,0.00201389,-0.00043319,0.
 00026284,-0.00032553,-0.00294452,0.00327382,0.00949479,-0.00138846,-0.
 01142434,-0.02175323,0.00138209,0.00043864,0.00111633,0.00010180,-0.00
 009388,-0.00003756,-0.00003203,0.00006225,-0.00003108,-0.00003486,0.00
 003623,-0.00002154,0.00056725,-0.00061673,0.00055181,0.00010827,-0.000
 06372,0.00010507,0.00003955,0.00011824,-0.00016601,-0.00006080,0.00011
 391,-0.00005105,0.00000541,0.00001761,-0.00002328,0.00002176,-0.000084
 52,0.00015746,-0.00004984,0.00007730,-0.00027867,-0.00003219,-0.000007
 34,0.00002564,0.00000125,0.00003225,-0.00001112,-0.00050999,-0.0004171
 9,0.00004253,0.00000955,0.00005809,-0.00005075,-0.00043561,-0.00003497
 ,0.00022466,0.00240433,0.00103636,-0.00083553,0.00160700,-0.00239855,-
 0.00049508,-0.00100111,-0.00184841,0.00095150,-0.01425340,0.00897791,-
 0.00081744,0.00413321,-0.00005757,-0.00799126,-0.03436478,-0.08393961,
 0.07353996,0.01739622,0.18182510,-0.00071001,-0.00010121,-0.00019114,-
 0.00018905,0.00014600,-0.00000123,-0.00005657,0.00016410,0.00013118,0.
 00023214,-0.00030062,0.00001989,0.00006917,0.00002680,0.00005701,0.000
 92230,-0.00025347,0.00022139,0.00106281,-0.00357688,-0.00119618,0.0000
 8509,-0.00026379,-0.00002956,0.00125479,0.00055979,-0.00036068,0.00015
 618,-0.00068806,-0.00046975,-0.00000646,-0.00015383,0.00014763,-0.0001
 4066,-0.00026473,-0.00018690,-0.00097133,0.00213703,-0.00121523,0.0000
 1759,0.00001275,0.00000979,-0.00007440,0.00007689,-0.00012504,-0.00350
 774,-0.00071573,0.00040069,0.00028302,0.00030386,0.00044161,-0.0166309
 9,0.01875225,0.00501911,-0.04118049,-0.01830915,-0.17397085,0.00096302
 ,0.00002170,-0.00054599,-0.00018357,-0.00006208,0.00011079,0.00001090,
 -0.00002001,0.00001350,0.00013823,-0.00006441,0.00001357,-0.00146222,0
 .00028405,-0.00073680,0.00006410,-0.00001098,-0.00021895,-0.00006650,-
 0.00002902,0.00020124,0.00006417,-0.00025698,0.00030341,-0.00015067,-0
 .00002066,0.00016469,-0.00005837,0.00007251,-0.00025378,0.00020798,0.0
 0005462,0.00041995,0.00000925,-0.00000405,-0.00001980,0.00003895,0.000
 11363,-0.00003531,0.00056685,-0.00011483,-0.00025042,-0.00004861,-0.00
 002743,0.00011396,-0.00027564,-0.00010490,0.00018972,0.00031160,-0.000
 02433,0.00020355,-0.00154420,0.00131447,0.00081600,-0.00086384,0.00210
 300,-0.00026443,0.01434766,-0.01398061,0.00014818,0.00581237,-0.006316
 12,-0.00851393,0.02170649,0.07792298,-0.07099076,0.02466279,-0.0404349
 5,0.28686136,0.00042878,-0.00065006,-0.00044948,0.00018748,0.00012064,
 0.00005108,-0.00072180,0.00054040,-0.00035545,-0.00063360,0.00014334,0
 .00049664,-0.00016892,-0.00000052,-0.00003213,0.00103379,-0.00148351,-
 0.00289137,-0.00552643,-0.00133554,-0.00387848,0.00049766,0.00023616,-
 0.00014660,-0.00035245,0.00011020,0.00016708,0.00047962,-0.00032861,-0
 .00012169,-0.00012348,-0.00011990,0.00002538,0.00032550,0.00035425,0.0
 0032831,-0.00481284,-0.00203890,-0.00114343,0.00001300,0.00005259,-0.0
 0003872,-0.00009149,-0.00015238,-0.00000096,-0.00019871,-0.00192535,0.
 00070600,-0.00004491,0.00043591,0.00002067,-0.02112288,-0.00982724,-0.
 00686920,0.00298257,0.00011554,0.00276954,-0.00194049,0.00531249,-0.00
 283221,0.00011813,-0.00017500,0.00000312,-0.00007049,0.00014363,-0.000
 06095,-0.00005582,0.00003767,0.00000467,0.00004331,-0.00035674,-0.0000
 2737,0.00025710,-0.00021434,-0.00005199,0.00000898,0.00001977,0.000011
 08,-0.00010945,0.00008935,-0.00003784,-0.00002361,0.00004658,0.0000827
 2,-0.00000282,-0.00005082,0.00003487,0.00008627,0.00008338,-0.00018392
 ,-0.00007719,-0.00001492,0.00008470,0.00001001,0.00005600,-0.00001703,
 -0.00017886,-0.00017852,-0.00024006,-0.00006705,-0.00000169,0.00011328
 ,-0.00004396,-0.00014461,0.00050557,-0.00175023,0.00187136,-0.00148399
 ,-0.00035408,-0.00485297,0.00071216,0.00060277,0.00169380,-0.00125126,
 -0.00790510,-0.00391795,-0.00201104,-0.01573700,0.00157065,0.04418981,
 0.00244116,0.00132044,-0.00144941,-0.02261266,0.03202109,0.00672501,0.
 07625646,0.00042774,-0.00065803,-0.00042920,0.00021622,0.00010724,-0.0
 0004274,-0.00071850,0.00038758,-0.00004935,-0.00054028,0.00015793,0.00
 088500,-0.00019247,-0.00005229,-0.00003856,0.00216643,0.00146755,-0.00
 195306,0.00283434,0.00122804,0.00278028,-0.00001079,-0.00079185,0.0001
 4578,-0.00039783,-0.00001550,0.00020387,0.00009078,-0.00041777,-0.0001
 5832,-0.00009068,-0.00008591,0.00008842,0.00054248,0.00044851,0.000344
 48,-0.00111916,0.00465667,-0.00277532,0.00000729,0.00002151,-0.0000077
 0,-0.00011299,-0.00024562,0.00006914,-0.00031031,0.00086013,-0.0019488
 8,-0.00007382,0.00014556,0.00019053,-0.00339200,-0.02213737,-0.0150685
 7,-0.00399299,-0.00099745,-0.00801021,-0.00326172,0.00150316,-0.000502
 70,0.00009725,0.00000035,-0.00011986,-0.00001483,0.00001194,0.00000031
 ,-0.00013422,0.00007845,0.00002313,0.00052757,-0.00039971,0.00074864,-
 0.00008850,-0.00008300,-0.00016996,-0.00005369,0.00004535,-0.00006983,
 -0.00020634,0.00018682,-0.00025078,0.00001011,0.00005591,0.00001153,0.
 00003234,-0.00004844,0.00012980,-0.00005769,0.00007784,-0.00018417,-0.
 00001595,-0.00000401,-0.00002192,0.00000218,0.00000210,-0.00004223,-0.
 00059844,0.00011412,-0.00015624,0.00004256,0.00003243,-0.00008062,0.00
 046618,0.00006017,-0.00000194,-0.00107053,-0.00013055,-0.00056287,-0.0
 0199073,-0.00001830,-0.00003862,0.00003206,0.00337649,-0.00131122,0.00
 277354,-0.00634296,0.00610104,-0.00449020,-0.01569963,0.02258571,-0.00
 351290,-0.00212448,0.00507044,0.03143749,-0.07310140,-0.02036641,-0.02
 013140,0.10428685,0.00030373,-0.00005940,-0.00002530,-0.00003053,-0.00
 002454,0.00006348,-0.00008096,-0.00000595,0.00007768,0.00001811,0.0001
 4361,0.00055614,-0.00003006,-0.00000935,0.00000294,-0.00011895,0.00096
 121,-0.00177106,-0.00208985,0.00097352,0.00157455,0.00015021,-0.000149
 85,0.00019444,-0.00006406,-0.00014411,-0.00033954,0.00029162,-0.000139
 79,0.00022046,-0.00003662,-0.00001719,0.00002412,0.00008701,0.00004412
 ,0.00013233,-0.00110371,-0.00009169,0.00195307,0.00000032,-0.00000256,
 -0.00000400,-0.00003013,-0.00004274,-0.00001241,-0.00001831,-0.0014423
 1,-0.00086516,-0.00003486,-0.00004504,-0.00015879,-0.01731461,-0.01393
 766,-0.01676752,0.00466954,-0.00698819,-0.00377214,-0.00012355,0.00089
 030,-0.00055148,-0.00000647,0.00003471,-0.00003330,0.00001160,-0.00002
 504,0.00001508,-0.00002039,0.00000551,0.00000327,-0.00004381,-0.000084
 70,0.00010648,-0.00001208,-0.00002473,-0.00011025,0.00001613,-0.000043
 05,-0.00000369,-0.00002189,0.00010657,-0.00008062,-0.00001249,0.000025
 58,0.00001665,0.00002028,-0.00000724,0.00003998,-0.00000318,0.00002766
 ,-0.00002137,0.00000811,0.00000702,-0.00003721,0.00002815,0.00002097,-
 0.00002100,-0.00006591,-0.00008605,-0.00003469,0.00002249,0.00002364,-
 0.00001189,-0.00004696,0.00009297,-0.00002226,-0.00026777,0.00044360,-
 0.00045426,0.00089314,0.00154838,0.00021679,0.00119840,0.00000762,0.00
 020699,0.00212909,0.00017258,0.00053772,0.04030451,0.02235961,-0.08250
 521,-0.00218419,-0.00193008,0.00072267,0.00580732,-0.01497895,-0.01413
 573,-0.03276841,0.01156092,0.11471506,-0.00011653,-0.00022573,-0.00020
 358,0.00020507,0.00002786,-0.00003161,-0.00003880,0.00025098,-0.000139
 65,-0.00010179,-0.00009181,0.00011299,-0.00007507,0.00002841,0.0000065
 4,0.00065083,-0.00096267,0.00032893,0.00037810,0.00002574,0.00064498,0
 .00025012,0.00023741,-0.00011591,-0.00057243,-0.00002140,0.00026711,-0
 .00020978,-0.00003917,-0.00003872,-0.00012812,-0.00007244,0.00000385,0
 .00036497,0.00038429,0.00010979,-0.00098083,0.00026382,0.00075352,-0.0
 0000181,0.00008918,-0.00012844,-0.00013392,-0.00007181,-0.00003798,0.0
 0117149,0.00037029,-0.00002658,0.00013764,-0.00000104,-0.00006209,-0.0
 0265886,0.00043147,-0.00325041,-0.00196637,0.00072184,-0.01173916,0.00
 038597,-0.00017075,0.00042994,0.00011997,-0.00053714,0.00016902,-0.000
 16138,0.00037937,-0.00017695,-0.00006468,0.00005917,-0.00007580,-0.000
 54954,-0.00004649,-0.00021298,0.00006522,0.00006962,-0.00000786,0.0001
 2470,0.00001568,0.00003447,0.00017186,0.00001524,0.00022218,0.00003087
 ,0.00005385,0.00005310,-0.00004209,-0.00002177,-0.00007769,0.00025210,
 0.00002810,-0.00015762,-0.00019223,-0.00003733,0.00025424,0.00002660,0
 .00003353,-0.00003119,0.00028972,0.00001588,-0.00040712,-0.00023688,-0
 .00004670,0.00032814,0.00001449,-0.00004908,0.00008067,-0.00031925,0.0
 0040332,-0.00025182,0.00013263,0.00000430,0.00003459,0.00012763,0.0000
 4524,-0.00009048,0.00216368,-0.00016973,-0.00018365,-0.00075021,-0.000
 34241,0.00026099,-0.00318163,-0.00855277,0.00953179,-0.28282073,-0.001
 02820,-0.01159112,-0.00104628,0.00487242,0.00056999,0.28928555,-0.0000
 6909,-0.00001724,-0.00002689,0.00002669,0.00000702,0.00000821,-0.00003
 583,0.00004764,-0.00000814,-0.00002242,-0.00004140,0.00002373,-0.00000
 999,0.00000282,0.00000153,0.00034634,-0.00021030,0.00002669,-0.0000768
 7,-0.00008197,0.00043230,0.00012300,0.00011931,-0.00012473,0.00002037,
 0.00003012,0.00004107,-0.00000947,-0.00007155,-0.00004344,-0.00003237,
 -0.00001731,-0.00000204,0.00005584,0.00007524,0.00000042,-0.00037377,-
 0.00025523,0.00070522,-0.00000169,0.00001382,-0.00001819,-0.00001117,-
 0.00000667,0.00000174,0.00036256,-0.00011086,-0.00049807,0.00000614,0.
 00000993,-0.00009380,-0.00093402,0.00105488,-0.00246613,-0.00193648,-0
 .00035450,0.00244783,0.00000883,-0.00009408,0.00010862,0.00000687,-0.0
 0007107,0.00002098,-0.00001913,0.00004452,-0.00002087,-0.00000662,0.00
 000873,-0.00001052,-0.00005527,-0.00003760,-0.00005545,0.00004635,0.00
 000619,-0.00000342,0.00001710,0.00001035,0.00000789,0.00001261,-0.0000
 1022,0.00004706,-0.00000540,-0.00000143,0.00000791,-0.00000906,-0.0000
 0864,-0.00000972,0.00003146,0.00001138,-0.00001127,-0.00002319,-0.0000
 0549,0.00002659,-0.00000355,0.00001151,-0.00000172,0.00003803,0.000008
 79,-0.00006888,-0.00002656,-0.00001177,0.00004316,0.00001539,-0.000011
 12,0.00004947,-0.00027746,0.00043325,-0.00005302,-0.00004253,-0.000057
 35,-0.00010497,0.00034345,-0.00020773,-0.00004387,0.00071852,0.0005012
 4,0.00111210,0.00001001,0.00014954,0.00069663,-0.00672820,0.00146936,-
 0.00388016,0.00333346,-0.01595926,0.00239884,0.00152575,0.00404161,0.0
 0083012,0.00366140,0.00958557,0.00004867,0.00004520,0.00002878,-0.0000
 2799,-0.00000797,0.00000763,-0.00002184,-0.00001488,-0.00006077,0.0000
 4754,0.00001817,-0.00000233,0.00001774,0.00000625,0.00000378,-0.000189
 97,0.00015837,0.00010699,-0.00004648,0.00046133,0.00007947,-0.00006852
 ,-0.00003431,0.00003419,0.00005690,-0.00003925,-0.00005162,-0.00000622
 ,0.00005677,0.00011577,0.00002807,0.00000222,0.00001054,-0.00005053,-0
 .00004099,-0.00003544,0.00017476,0.00013225,-0.00065226,-0.00000002,-0
 .00000161,0.00000207,-0.00000129,0.00001809,-0.00001161,0.00048639,-0.
 00030492,0.00047381,0.00002007,-0.00006685,0.00009249,0.00108051,-0.00
 170372,0.00083491,-0.00825962,0.00042221,0.00396906,-0.00021134,0.0001
 3159,-0.00043835,-0.00000062,-0.00001533,0.00001232,-0.00000508,0.0000
 1369,-0.00000606,0.00000506,-0.00000404,-0.00000218,-0.00011111,0.0000
 9015,-0.00007150,-0.00002545,0.00001018,0.00001077,0.00000877,-0.00000
 982,0.00000917,0.00002609,-0.00003496,0.00002336,0.00000629,0.00000436
 ,0.00001765,0.00000070,0.00000638,-0.00000916,0.00001407,-0.00000826,-
 0.00001521,-0.00000400,0.00000077,0.00001412,-0.00000334,-0.00001902,-
 0.00000600,0.00011802,0.00003729,0.00000729,-0.00001274,-0.00000692,0.
 00001812,0.00002262,-0.00000394,-0.00002505,-0.00040247,-0.00025184,-0
 .00003410,0.00017151,-0.00018177,-0.00020677,0.00009604,0.00012582,-0.
 00000225,-0.00006490,0.00113820,0.00077924,-0.00010584,-0.00015545,-0.
 00015142,0.00558776,-0.00405499,0.00134388,-0.01455107,0.00215214,-0.0
 2229576,0.00131129,0.00342222,0.00035900,0.01484157,-0.00149282,0.0157
 2341\\0.00000128,0.00001197,0.00000337,-0.00000122,0.00000340,0.000000
 74,-0.00000453,-0.00001084,-0.00000204,-0.00000533,-0.00000359,0.00000
 623,-0.00000186,0.00000038,-0.00000058,0.00000410,0.00001768,-0.000007
 86,0.00000465,0.00000668,-0.00001228,-0.00000379,-0.00000028,-0.000015
 12,0.00003302,-0.00001587,-0.00000607,-0.00000547,0.00001138,0.0000157
 4,0.00000081,-0.00000211,0.00000052,-0.00000132,-0.00000896,0.00000824
 ,-0.00003009,-0.00002592,0.00001796,0.00000248,-0.00000122,-0.00000236
 ,-0.00000453,0.00000508,0.00000276,0.00001293,0.00000094,0.00002547,0.
 00000931,-0.00000656,-0.00000534,-0.00003484,-0.00000607,-0.00001118,0
 .00000559,-0.00000693,-0.00000016,0.00000611,0.00001547,0.00000319,0.0
 0000387,0.00000034,0.00000022,-0.00000146,-0.00000041,0.00000049,-0.00
 000232,0.00000129,-0.00000260,-0.00001658,0.00000961,0.00000274,0.0000
 0244,-0.00000405,-0.00000013,-0.00000110,0.00000254,0.00000807,-0.0000
 0272,0.00000791,-0.00001266,-0.00000002,-0.00000219,-0.00000415,0.0000
 0338,0.00000176,0.00000236,-0.00000397,-0.00000395,-0.00000083,0.00000
 283,0.00000037,0.00000242,0.00000073,0.00000267,0.00000172,0.00001439,
 -0.00000356,0.00000102,-0.00000036,-0.00000038,-0.00000044,-0.00000804
 ,-0.00001573,-0.00000227,0.00001505,0.00003917,0.00001607,-0.00001124,
 0.00000201,-0.00000630,-0.00001314,-0.00000648,0.00000217,0.00003744,-
 0.00000498,-0.00003989,-0.00001775,-0.00000703,0.00001493,-0.00001004,
 -0.00000139,0.00001560,-0.00000284,0.00001173,-0.00000967,0.00002451,-
 0.00001719,-0.00001077,-0.00000033,0.00000334,0.00000067\\\@
 The archive entry for this job was punched.


 CHEMISTRY BEGAN BY SAYING IT WOULD CHANGE THE BASER
 METALS INTO GOLD.  BY NOT DOING THAT IT HAS DONE MUCH
 GREATER THINGS.  --  RALPH WALDO EMERSON
 Job cpu time:       1 days 13 hours 26 minutes 13.5 seconds.
 Elapsed time:       0 days  0 hours 49 minutes  1.1 seconds.
 File lengths (MBytes):  RWF=   4919 Int=      0 D2E=      0 Chk=     68 Scr=      2
 Normal termination of Gaussian 16 at Wed Jan 25 11:36:49 2023.
