 Entering Gaussian System, Link 0=/apps/GAU16/avx2/g16/g16
 Initial command:
 /apps/GAU16/avx2//g16/l1.exe "/localscratch/chegho/Gau-59694.inp" -scrdir="/localscratch/chegho/"
 Entering Link 1 = /apps/GAU16/avx2//g16/l1.exe PID=     59696.
  
 Copyright (c) 1988-2019, Gaussian, Inc.  All Rights Reserved.
  
 This is part of the Gaussian(R) 16 program.  It is based on
 the Gaussian(R) 09 system (copyright 2009, Gaussian, Inc.),
 the Gaussian(R) 03 system (copyright 2003, Gaussian, Inc.),
 the Gaussian(R) 98 system (copyright 1998, Gaussian, Inc.),
 the Gaussian(R) 94 system (copyright 1995, Gaussian, Inc.),
 the Gaussian 92(TM) system (copyright 1992, Gaussian, Inc.),
 the Gaussian 90(TM) system (copyright 1990, Gaussian, Inc.),
 the Gaussian 88(TM) system (copyright 1988, Gaussian, Inc.),
 the Gaussian 86(TM) system (copyright 1986, Carnegie Mellon
 University), and the Gaussian 82(TM) system (copyright 1983,
 Carnegie Mellon University). Gaussian is a federally registered
 trademark of Gaussian, Inc.
  
 This software contains proprietary and confidential information,
 including trade secrets, belonging to Gaussian, Inc.
  
 This software is provided under written license and may be
 used, copied, transmitted, or stored only in accord with that
 written license.
  
 The following legend is applicable only to US Government
 contracts under FAR:
  
                    RESTRICTED RIGHTS LEGEND
  
 Use, reproduction and disclosure by the US Government is
 subject to restrictions as set forth in subparagraphs (a)
 and (c) of the Commercial Computer Software - Restricted
 Rights clause in FAR 52.227-19.
  
 Gaussian, Inc.
 340 Quinnipiac St., Bldg. 40, Wallingford CT 06492
  
  
 ---------------------------------------------------------------
 Warning -- This program may not be used in any manner that
 competes with the business of Gaussian, Inc. or will provide
 assistance to any competitor of Gaussian, Inc.  The licensee
 of this program is prohibited from giving any competitor of
 Gaussian, Inc. access to this program.  By using this program,
 the user acknowledges that Gaussian, Inc. is engaged in the
 business of creating and licensing software in the field of
 computational chemistry and represents and warrants to the
 licensee that it is not a competitor of Gaussian, Inc. and that
 it will not use this program in any manner prohibited above.
 ---------------------------------------------------------------
  

 Cite this work as:
 Gaussian 16, Revision C.01,
 M. J. Frisch, G. W. Trucks, H. B. Schlegel, G. E. Scuseria, 
 M. A. Robb, J. R. Cheeseman, G. Scalmani, V. Barone, 
 G. A. Petersson, H. Nakatsuji, X. Li, M. Caricato, A. V. Marenich, 
 J. Bloino, B. G. Janesko, R. Gomperts, B. Mennucci, H. P. Hratchian, 
 J. V. Ortiz, A. F. Izmaylov, J. L. Sonnenberg, D. Williams-Young, 
 F. Ding, F. Lipparini, F. Egidi, J. Goings, B. Peng, A. Petrone, 
 T. Henderson, D. Ranasinghe, V. G. Zakrzewski, J. Gao, N. Rega, 
 G. Zheng, W. Liang, M. Hada, M. Ehara, K. Toyota, R. Fukuda, 
 J. Hasegawa, M. Ishida, T. Nakajima, Y. Honda, O. Kitao, H. Nakai, 
 T. Vreven, K. Throssell, J. A. Montgomery, Jr., J. E. Peralta, 
 F. Ogliaro, M. J. Bearpark, J. J. Heyd, E. N. Brothers, K. N. Kudin, 
 V. N. Staroverov, T. A. Keith, R. Kobayashi, J. Normand, 
 K. Raghavachari, A. P. Rendell, J. C. Burant, S. S. Iyengar, 
 J. Tomasi, M. Cossi, J. M. Millam, M. Klene, C. Adamo, R. Cammi, 
 J. W. Ochterski, R. L. Martin, K. Morokuma, O. Farkas, 
 J. B. Foresman, and D. J. Fox, Gaussian, Inc., Wallingford CT, 2019.
 
 ******************************************
 Gaussian 16:  ES64L-G16RevC.01  3-Jul-2019
                24-Dec-2022 
 ******************************************
 %nprocshared=48
 Will use up to   48 processors via shared memory.
 %mem=100GB
 ---------------------------------------
 # opt freq b3lyp/gen nosymm pseudo=read
 ---------------------------------------
 1/18=20,19=15,26=3,38=1/1,3;
 2/9=110,12=2,15=1,17=6,18=5,40=1/2;
 3/5=7,11=2,16=1,17=8,25=1,30=1,71=1,74=-5/1,2,3;
 4//1;
 5/5=2,38=5/2;
 6/7=2,8=2,9=2,10=2,28=1/1;
 7/30=1/1,2,3,16;
 1/18=20,19=15,26=3/3(2);
 2/9=110,15=1/2;
 99//99;
 2/9=110,15=1/2;
 3/5=7,6=1,11=2,16=1,17=8,25=1,30=1,71=1,74=-5,82=7/1,2,3;
 4/5=5,16=3,69=1/1;
 5/5=2,38=5/2;
 7/30=1/1,2,3,16;
 1/18=20,19=15,26=3/3(-5);
 2/9=110,15=1/2;
 6/7=2,8=2,9=2,10=2,19=2,28=1/1;
 99/9=1/99;
 -------------------
 Title Card Required
 -------------------
 Symbolic Z-matrix:
 Charge =  0 Multiplicity = 1
 42                    0.56762   1.42818   12.33454 
 16                    1.55327   3.56508   12.59818 
 16                   -1.6027    1.84027   13.11843 
 16                   -0.31821   0.93312   10.18226 
 16                    2.38839  -0.15821   11.74673 
 42                   -2.01548   2.57464   10.80735 
 16                   -2.79819   2.07953   8.60403 
 16                   -1.00875   4.58848   10.67097 
 42                    0.97329   3.04682   10.26696 
 16                    0.29237   3.30231   7.88283 
 16                    2.84916   1.83834   9.31281 
 42                    3.28029   2.2854    11.64863 
 42                   -1.93632   4.35112   8.32772 
 16                    4.4516    1.94817   13.86123 
 16                    4.92682   3.93584   11.40141 
 16                   -3.69794   5.87084   9.08596 
 16                   -0.54575   6.51952   8.18023 
 42                   -4.36258   3.65718   9.51081 
 16                   -6.55505   4.83507   10.36584 
 16                   -4.11016   3.24515   11.73047 
 42                    2.98836   0.26092   13.93653 
 16                    3.77558  -1.43633   14.93521 
 16                    1.0809    0.93627   14.83996 
 42                    1.56072   5.42371   7.28386 
 16                    0.75794   5.02556   5.03309 
 16                    1.92649   5.42981   9.90592 
 42                    3.6381    4.08601   9.46522 
 16                    3.47256   3.89892   6.97347 
 16                    5.33873   6.02262   9.05406 
 42                    4.34392   6.06624   7.08302 
 16                    5.65184   6.38437   5.45153 
 16                    2.58569   7.6999    7.2039 
 42                    1.53361   7.23541   5.09414 
 16                    2.79247   7.58883   3.42823 
 16                   -0.35582   8.39288   5.09985 
 42                   -1.19472   6.1628    6.06243 
 16                   -2.07611   3.96942   5.95057 
 16                   -3.30331   7.33877   5.74772 
 42                   -3.86874   5.39168   6.73089 
 16                   -5.86621   4.36277   6.22057 
 16                   -6.32478   6.28714   6.93678 
 42                   -7.23819   4.78111   8.26817 
 16                   -6.30163   2.44994   7.93068 
 16                   -9.34387   4.82028   8.15222 
 

 GradGradGradGradGradGradGradGradGradGradGradGradGradGradGradGradGradGrad
 Berny optimization.
 Initialization pass.
                           ----------------------------
                           !    Initial Parameters    !
                           ! (Angstroms and Degrees)  !
 --------------------------                            --------------------------
 ! Name  Definition              Value          Derivative Info.                !
 --------------------------------------------------------------------------------
 ! R1    R(1,2)                  2.368          estimate D2E/DX2                !
 ! R2    R(1,3)                  2.3441         estimate D2E/DX2                !
 ! R3    R(1,4)                  2.3795         estimate D2E/DX2                !
 ! R4    R(1,5)                  2.4854         estimate D2E/DX2                !
 ! R5    R(1,9)                  2.657          estimate D2E/DX2                !
 ! R6    R(1,12)                 2.9264         estimate D2E/DX2                !
 ! R7    R(1,23)                 2.6043         estimate D2E/DX2                !
 ! R8    R(2,9)                  2.4576         estimate D2E/DX2                !
 ! R9    R(2,12)                 2.3499         estimate D2E/DX2                !
 ! R10   R(3,6)                  2.4598         estimate D2E/DX2                !
 ! R11   R(4,6)                  2.4426         estimate D2E/DX2                !
 ! R12   R(4,9)                  2.4785         estimate D2E/DX2                !
 ! R13   R(5,12)                 2.6031         estimate D2E/DX2                !
 ! R14   R(5,21)                 2.3089         estimate D2E/DX2                !
 ! R15   R(6,7)                  2.3901         estimate D2E/DX2                !
 ! R16   R(6,8)                  2.2556         estimate D2E/DX2                !
 ! R17   R(6,9)                  3.0737         estimate D2E/DX2                !
 ! R18   R(6,13)                 3.0514         estimate D2E/DX2                !
 ! R19   R(6,18)                 2.8917         estimate D2E/DX2                !
 ! R20   R(6,20)                 2.3852         estimate D2E/DX2                !
 ! R21   R(7,13)                 2.4453         estimate D2E/DX2                !
 ! R22   R(7,18)                 2.3997         estimate D2E/DX2                !
 ! R23   R(8,9)                  2.5433         estimate D2E/DX2                !
 ! R24   R(8,13)                 2.5313         estimate D2E/DX2                !
 ! R25   R(9,10)                 2.4926         estimate D2E/DX2                !
 ! R26   R(9,11)                 2.4269         estimate D2E/DX2                !
 ! R27   R(9,12)                 2.7948         estimate D2E/DX2                !
 ! R28   R(9,26)                 2.5918         estimate D2E/DX2                !
 ! R29   R(9,27)                 2.9705         estimate D2E/DX2                !
 ! R30   R(10,13)                2.503          estimate D2E/DX2                !
 ! R31   R(10,24)                2.5432         estimate D2E/DX2                !
 ! R32   R(11,12)                2.417          estimate D2E/DX2                !
 ! R33   R(11,27)                2.387          estimate D2E/DX2                !
 ! R34   R(12,14)                2.5261         estimate D2E/DX2                !
 ! R35   R(12,15)                2.3444         estimate D2E/DX2                !
 ! R36   R(12,21)                3.0689         estimate D2E/DX2                !
 ! R37   R(12,27)                2.8526         estimate D2E/DX2                !
 ! R38   R(13,16)                2.447          estimate D2E/DX2                !
 ! R39   R(13,17)                2.5802         estimate D2E/DX2                !
 ! R40   R(13,18)                2.7871         estimate D2E/DX2                !
 ! R41   R(13,36)                2.9939         estimate D2E/DX2                !
 ! R42   R(13,37)                2.4117         estimate D2E/DX2                !
 ! R43   R(13,39)                2.7142         estimate D2E/DX2                !
 ! R44   R(14,21)                2.2346         estimate D2E/DX2                !
 ! R45   R(15,27)                2.3307         estimate D2E/DX2                !
 ! R46   R(16,18)                2.35           estimate D2E/DX2                !
 ! R47   R(16,39)                2.4094         estimate D2E/DX2                !
 ! R48   R(17,24)                2.538          estimate D2E/DX2                !
 ! R49   R(17,36)                2.2435         estimate D2E/DX2                !
 ! R50   R(18,19)                2.6316         estimate D2E/DX2                !
 ! R51   R(18,20)                2.2716         estimate D2E/DX2                !
 ! R52   R(19,42)                2.2068         estimate D2E/DX2                !
 ! R53   R(21,22)                2.1208         estimate D2E/DX2                !
 ! R54   R(21,23)                2.216          estimate D2E/DX2                !
 ! R55   R(24,25)                2.4226         estimate D2E/DX2                !
 ! R56   R(24,26)                2.6475         estimate D2E/DX2                !
 ! R57   R(24,28)                2.4651         estimate D2E/DX2                !
 ! R58   R(24,30)                2.8635         estimate D2E/DX2                !
 ! R59   R(24,32)                2.4976         estimate D2E/DX2                !
 ! R60   R(24,33)                2.8422         estimate D2E/DX2                !
 ! R61   R(24,36)                3.1033         estimate D2E/DX2                !
 ! R62   R(25,33)                2.3428         estimate D2E/DX2                !
 ! R63   R(25,36)                2.4831         estimate D2E/DX2                !
 ! R64   R(26,27)                2.2203         estimate D2E/DX2                !
 ! R65   R(27,28)                2.5042         estimate D2E/DX2                !
 ! R66   R(27,29)                2.6099         estimate D2E/DX2                !
 ! R67   R(28,30)                2.3385         estimate D2E/DX2                !
 ! R68   R(29,30)                2.2083         estimate D2E/DX2                !
 ! R69   R(30,31)                2.1151         estimate D2E/DX2                !
 ! R70   R(30,32)                2.4031         estimate D2E/DX2                !
 ! R71   R(32,33)                2.4029         estimate D2E/DX2                !
 ! R72   R(33,34)                2.1178         estimate D2E/DX2                !
 ! R73   R(33,35)                2.2158         estimate D2E/DX2                !
 ! R74   R(33,36)                3.0874         estimate D2E/DX2                !
 ! R75   R(35,36)                2.5697         estimate D2E/DX2                !
 ! R76   R(36,37)                2.3665         estimate D2E/DX2                !
 ! R77   R(36,38)                2.4348         estimate D2E/DX2                !
 ! R78   R(36,39)                2.8621         estimate D2E/DX2                !
 ! R79   R(37,39)                2.4177         estimate D2E/DX2                !
 ! R80   R(38,39)                2.2533         estimate D2E/DX2                !
 ! R81   R(39,40)                2.3041         estimate D2E/DX2                !
 ! R82   R(39,41)                2.6223         estimate D2E/DX2                !
 ! R83   R(40,41)                2.1039         estimate D2E/DX2                !
 ! R84   R(40,42)                2.5            estimate D2E/DX2                !
 ! R85   R(41,42)                2.208          estimate D2E/DX2                !
 ! R86   R(42,43)                2.5348         estimate D2E/DX2                !
 ! R87   R(42,44)                2.1092         estimate D2E/DX2                !
 ! A1    A(2,1,3)              100.9243         estimate D2E/DX2                !
 ! A2    A(2,1,4)              116.3213         estimate D2E/DX2                !
 ! A3    A(2,1,5)              107.301          estimate D2E/DX2                !
 ! A4    A(2,1,23)              88.929          estimate D2E/DX2                !
 ! A5    A(3,1,4)               89.6778         estimate D2E/DX2                !
 ! A6    A(3,1,5)              150.4101         estimate D2E/DX2                !
 ! A7    A(3,1,9)              107.1276         estimate D2E/DX2                !
 ! A8    A(3,1,12)             152.2693         estimate D2E/DX2                !
 ! A9    A(3,1,23)              83.9135         estimate D2E/DX2                !
 ! A10   A(4,1,5)               85.7565         estimate D2E/DX2                !
 ! A11   A(4,1,12)             101.1875         estimate D2E/DX2                !
 ! A12   A(4,1,23)             154.7189         estimate D2E/DX2                !
 ! A13   A(5,1,9)               95.3333         estimate D2E/DX2                !
 ! A14   A(5,1,23)              87.8555         estimate D2E/DX2                !
 ! A15   A(9,1,23)             146.47           estimate D2E/DX2                !
 ! A16   A(12,1,23)             95.631          estimate D2E/DX2                !
 ! A17   A(1,3,6)               83.8958         estimate D2E/DX2                !
 ! A18   A(1,4,6)               83.5339         estimate D2E/DX2                !
 ! A19   A(1,5,21)              81.3841         estimate D2E/DX2                !
 ! A20   A(3,6,4)               85.5953         estimate D2E/DX2                !
 ! A21   A(3,6,7)              149.2305         estimate D2E/DX2                !
 ! A22   A(3,6,8)              104.3863         estimate D2E/DX2                !
 ! A23   A(3,6,9)               92.7438         estimate D2E/DX2                !
 ! A24   A(3,6,13)             158.8996         estimate D2E/DX2                !
 ! A25   A(3,6,18)             132.0074         estimate D2E/DX2                !
 ! A26   A(3,6,20)              82.3965         estimate D2E/DX2                !
 ! A27   A(4,6,7)               81.5133         estimate D2E/DX2                !
 ! A28   A(4,6,8)              105.9265         estimate D2E/DX2                !
 ! A29   A(4,6,13)              99.5128         estimate D2E/DX2                !
 ! A30   A(4,6,18)             134.496          estimate D2E/DX2                !
 ! A31   A(4,6,20)             153.9212         estimate D2E/DX2                !
 ! A32   A(7,6,8)              105.9843         estimate D2E/DX2                !
 ! A33   A(7,6,9)              100.8465         estimate D2E/DX2                !
 ! A34   A(7,6,20)              97.3204         estimate D2E/DX2                !
 ! A35   A(8,6,18)              90.0528         estimate D2E/DX2                !
 ! A36   A(8,6,20)              99.4611         estimate D2E/DX2                !
 ! A37   A(9,6,13)              75.0763         estimate D2E/DX2                !
 ! A38   A(9,6,18)             130.761          estimate D2E/DX2                !
 ! A39   A(9,6,20)             151.4942         estimate D2E/DX2                !
 ! A40   A(13,6,20)             99.9984         estimate D2E/DX2                !
 ! A41   A(9,8,13)              94.6851         estimate D2E/DX2                !
 ! A42   A(1,9,6)               67.737          estimate D2E/DX2                !
 ! A43   A(1,9,8)               97.2775         estimate D2E/DX2                !
 ! A44   A(1,9,10)             139.9114         estimate D2E/DX2                !
 ! A45   A(1,9,11)              96.927          estimate D2E/DX2                !
 ! A46   A(1,9,26)             136.4412         estimate D2E/DX2                !
 ! A47   A(1,9,27)             124.0642         estimate D2E/DX2                !
 ! A48   A(2,9,4)              109.5871         estimate D2E/DX2                !
 ! A49   A(2,9,6)               95.457          estimate D2E/DX2                !
 ! A50   A(2,9,8)               84.5717         estimate D2E/DX2                !
 ! A51   A(2,9,10)             161.8368         estimate D2E/DX2                !
 ! A52   A(2,9,11)             107.19           estimate D2E/DX2                !
 ! A53   A(2,9,26)              81.4572         estimate D2E/DX2                !
 ! A54   A(2,9,27)              88.3118         estimate D2E/DX2                !
 ! A55   A(4,9,8)               96.6779         estimate D2E/DX2                !
 ! A56   A(4,9,10)              84.9733         estimate D2E/DX2                !
 ! A57   A(4,9,11)              87.9755         estimate D2E/DX2                !
 ! A58   A(4,9,12)             102.397          estimate D2E/DX2                !
 ! A59   A(4,9,27)             139.1639         estimate D2E/DX2                !
 ! A60   A(6,9,10)              85.3125         estimate D2E/DX2                !
 ! A61   A(6,9,11)             138.0925         estimate D2E/DX2                !
 ! A62   A(6,9,12)             132.3669         estimate D2E/DX2                !
 ! A63   A(6,9,26)             121.5564         estimate D2E/DX2                !
 ! A64   A(8,9,10)              82.9299         estimate D2E/DX2                !
 ! A65   A(8,9,12)             136.878          estimate D2E/DX2                !
 ! A66   A(8,9,26)              75.6063         estimate D2E/DX2                !
 ! A67   A(8,9,27)             122.0008         estimate D2E/DX2                !
 ! A68   A(10,9,11)             83.4624         estimate D2E/DX2                !
 ! A69   A(10,9,12)            136.5754         estimate D2E/DX2                !
 ! A70   A(10,9,26)             82.703          estimate D2E/DX2                !
 ! A71   A(10,9,27)             87.1942         estimate D2E/DX2                !
 ! A72   A(11,9,26)             96.8226         estimate D2E/DX2                !
 ! A73   A(12,9,26)             90.9038         estimate D2E/DX2                !
 ! A74   A(9,10,13)             96.6718         estimate D2E/DX2                !
 ! A75   A(9,10,24)            100.0515         estimate D2E/DX2                !
 ! A76   A(13,10,24)            97.8398         estimate D2E/DX2                !
 ! A77   A(1,12,11)             90.4004         estimate D2E/DX2                !
 ! A78   A(1,12,14)            100.6853         estimate D2E/DX2                !
 ! A79   A(1,12,15)            151.8806         estimate D2E/DX2                !
 ! A80   A(1,12,21)             62.8612         estimate D2E/DX2                !
 ! A81   A(1,12,27)            118.7224         estimate D2E/DX2                !
 ! A82   A(2,12,5)             104.1325         estimate D2E/DX2                !
 ! A83   A(2,12,11)            111.1095         estimate D2E/DX2                !
 ! A84   A(2,12,14)             93.4135         estimate D2E/DX2                !
 ! A85   A(2,12,15)            100.1022         estimate D2E/DX2                !
 ! A86   A(2,12,21)             89.3171         estimate D2E/DX2                !
 ! A87   A(2,12,27)             93.3097         estimate D2E/DX2                !
 ! A88   A(5,12,9)              89.516          estimate D2E/DX2                !
 ! A89   A(5,12,11)             78.5609         estimate D2E/DX2                !
 ! A90   A(5,12,14)             90.0313         estimate D2E/DX2                !
 ! A91   A(5,12,15)            154.8859         estimate D2E/DX2                !
 ! A92   A(5,12,27)            131.6321         estimate D2E/DX2                !
 ! A93   A(9,12,14)            148.444          estimate D2E/DX2                !
 ! A94   A(9,12,15)            109.6218         estimate D2E/DX2                !
 ! A95   A(9,12,21)            118.0185         estimate D2E/DX2                !
 ! A96   A(11,12,14)           154.7552         estimate D2E/DX2                !
 ! A97   A(11,12,15)            98.8344         estimate D2E/DX2                !
 ! A98   A(11,12,21)           125.5554         estimate D2E/DX2                !
 ! A99   A(14,12,15)            81.9922         estimate D2E/DX2                !
 ! A100  A(14,12,27)           134.1478         estimate D2E/DX2                !
 ! A101  A(15,12,21)           127.5776         estimate D2E/DX2                !
 ! A102  A(6,13,10)             85.6177         estimate D2E/DX2                !
 ! A103  A(6,13,16)             95.2263         estimate D2E/DX2                !
 ! A104  A(6,13,17)            123.3471         estimate D2E/DX2                !
 ! A105  A(6,13,37)            135.0206         estimate D2E/DX2                !
 ! A106  A(6,13,39)            133.0646         estimate D2E/DX2                !
 ! A107  A(7,13,8)              96.4112         estimate D2E/DX2                !
 ! A108  A(7,13,10)             86.8277         estimate D2E/DX2                !
 ! A109  A(7,13,16)            106.7498         estimate D2E/DX2                !
 ! A110  A(7,13,36)            137.3025         estimate D2E/DX2                !
 ! A111  A(7,13,37)             86.7852         estimate D2E/DX2                !
 ! A112  A(7,13,39)             99.8858         estimate D2E/DX2                !
 ! A113  A(8,13,10)             82.9664         estimate D2E/DX2                !
 ! A114  A(8,13,16)             85.3378         estimate D2E/DX2                !
 ! A115  A(8,13,17)             77.0924         estimate D2E/DX2                !
 ! A116  A(8,13,18)             87.0991         estimate D2E/DX2                !
 ! A117  A(8,13,36)            123.5662         estimate D2E/DX2                !
 ! A118  A(8,13,37)            161.5394         estimate D2E/DX2                !
 ! A119  A(8,13,39)            140.3142         estimate D2E/DX2                !
 ! A120  A(10,13,16)           163.0042         estimate D2E/DX2                !
 ! A121  A(10,13,17)            82.0741         estimate D2E/DX2                !
 ! A122  A(10,13,18)           138.2664         estimate D2E/DX2                !
 ! A123  A(10,13,36)            84.1754         estimate D2E/DX2                !
 ! A124  A(10,13,37)            79.0525         estimate D2E/DX2                !
 ! A125  A(10,13,39)           133.6313         estimate D2E/DX2                !
 ! A126  A(16,13,17)            83.325          estimate D2E/DX2                !
 ! A127  A(16,13,36)            92.1183         estimate D2E/DX2                !
 ! A128  A(16,13,37)           111.2234         estimate D2E/DX2                !
 ! A129  A(17,13,18)           134.6417         estimate D2E/DX2                !
 ! A130  A(17,13,37)            96.1947         estimate D2E/DX2                !
 ! A131  A(17,13,39)            91.5981         estimate D2E/DX2                !
 ! A132  A(18,13,36)           133.4302         estimate D2E/DX2                !
 ! A133  A(18,13,37)           109.1808         estimate D2E/DX2                !
 ! A134  A(18,13,39)            74.062          estimate D2E/DX2                !
 ! A135  A(18,16,39)            88.2421         estimate D2E/DX2                !
 ! A136  A(13,17,24)            96.0064         estimate D2E/DX2                !
 ! A137  A(6,18,16)            101.7791         estimate D2E/DX2                !
 ! A138  A(6,18,19)            134.2755         estimate D2E/DX2                !
 ! A139  A(7,18,16)            111.5059         estimate D2E/DX2                !
 ! A140  A(7,18,19)            163.7728         estimate D2E/DX2                !
 ! A141  A(7,18,20)            100.2267         estimate D2E/DX2                !
 ! A142  A(13,18,19)           138.741          estimate D2E/DX2                !
 ! A143  A(13,18,20)           111.297          estimate D2E/DX2                !
 ! A144  A(16,18,19)            82.6891         estimate D2E/DX2                !
 ! A145  A(16,18,20)           108.4258         estimate D2E/DX2                !
 ! A146  A(19,18,20)            81.7372         estimate D2E/DX2                !
 ! A147  A(18,19,42)            86.452          estimate D2E/DX2                !
 ! A148  A(5,21,14)            105.9775         estimate D2E/DX2                !
 ! A149  A(5,21,22)            113.4404         estimate D2E/DX2                !
 ! A150  A(5,21,23)            102.6095         estimate D2E/DX2                !
 ! A151  A(12,21,22)           147.5312         estimate D2E/DX2                !
 ! A152  A(12,21,23)           100.6476         estimate D2E/DX2                !
 ! A153  A(14,21,22)           112.1525         estimate D2E/DX2                !
 ! A154  A(14,21,23)           110.3198         estimate D2E/DX2                !
 ! A155  A(22,21,23)           111.8036         estimate D2E/DX2                !
 ! A156  A(1,23,21)             80.5034         estimate D2E/DX2                !
 ! A157  A(10,24,17)            82.1285         estimate D2E/DX2                !
 ! A158  A(10,24,25)            85.2079         estimate D2E/DX2                !
 ! A159  A(10,24,26)            80.6517         estimate D2E/DX2                !
 ! A160  A(10,24,28)            84.2883         estimate D2E/DX2                !
 ! A161  A(10,24,30)           133.5066         estimate D2E/DX2                !
 ! A162  A(10,24,33)           135.1063         estimate D2E/DX2                !
 ! A163  A(10,24,36)            81.2887         estimate D2E/DX2                !
 ! A164  A(17,24,25)            97.1266         estimate D2E/DX2                !
 ! A165  A(17,24,26)            76.3425         estimate D2E/DX2                !
 ! A166  A(17,24,28)           162.7941         estimate D2E/DX2                !
 ! A167  A(17,24,30)           137.273          estimate D2E/DX2                !
 ! A168  A(17,24,32)            87.6174         estimate D2E/DX2                !
 ! A169  A(17,24,33)            89.3679         estimate D2E/DX2                !
 ! A170  A(25,24,28)            92.1984         estimate D2E/DX2                !
 ! A171  A(25,24,30)           107.0856         estimate D2E/DX2                !
 ! A172  A(25,24,32)           104.8345         estimate D2E/DX2                !
 ! A173  A(26,24,28)            91.0874         estimate D2E/DX2                !
 ! A174  A(26,24,30)            86.2536         estimate D2E/DX2                !
 ! A175  A(26,24,32)            88.4476         estimate D2E/DX2                !
 ! A176  A(26,24,33)           139.7206         estimate D2E/DX2                !
 ! A177  A(26,24,36)           120.7928         estimate D2E/DX2                !
 ! A178  A(28,24,32)           103.97           estimate D2E/DX2                !
 ! A179  A(28,24,33)           107.7392         estimate D2E/DX2                !
 ! A180  A(28,24,36)           141.8501         estimate D2E/DX2                !
 ! A181  A(30,24,33)            79.1755         estimate D2E/DX2                !
 ! A182  A(30,24,36)           141.4412         estimate D2E/DX2                !
 ! A183  A(32,24,36)            97.7431         estimate D2E/DX2                !
 ! A184  A(9,26,24)             94.8779         estimate D2E/DX2                !
 ! A185  A(24,26,27)            84.7516         estimate D2E/DX2                !
 ! A186  A(9,27,15)            104.4346         estimate D2E/DX2                !
 ! A187  A(9,27,28)            100.5514         estimate D2E/DX2                !
 ! A188  A(9,27,29)            152.4553         estimate D2E/DX2                !
 ! A189  A(11,27,15)           100.0859         estimate D2E/DX2                !
 ! A190  A(11,27,26)           109.1351         estimate D2E/DX2                !
 ! A191  A(11,27,28)            81.041          estimate D2E/DX2                !
 ! A192  A(11,27,29)           154.6921         estimate D2E/DX2                !
 ! A193  A(12,27,26)            97.6669         estimate D2E/DX2                !
 ! A194  A(12,27,28)           134.9214         estimate D2E/DX2                !
 ! A195  A(12,27,29)           132.1195         estimate D2E/DX2                !
 ! A196  A(15,27,26)           107.4791         estimate D2E/DX2                !
 ! A197  A(15,27,28)           149.129          estimate D2E/DX2                !
 ! A198  A(15,27,29)            79.5361         estimate D2E/DX2                !
 ! A199  A(26,27,28)           101.0555         estimate D2E/DX2                !
 ! A200  A(26,27,29)            94.8465         estimate D2E/DX2                !
 ! A201  A(28,27,29)            86.6613         estimate D2E/DX2                !
 ! A202  A(24,28,27)            83.0946         estimate D2E/DX2                !
 ! A203  A(27,28,30)            81.9241         estimate D2E/DX2                !
 ! A204  A(27,29,30)            82.0521         estimate D2E/DX2                !
 ! A205  A(24,30,29)           111.7666         estimate D2E/DX2                !
 ! A206  A(24,30,31)           133.5426         estimate D2E/DX2                !
 ! A207  A(28,30,29)           101.0324         estimate D2E/DX2                !
 ! A208  A(28,30,31)           109.4922         estimate D2E/DX2                !
 ! A209  A(28,30,32)           111.087          estimate D2E/DX2                !
 ! A210  A(29,30,31)           114.3863         estimate D2E/DX2                !
 ! A211  A(29,30,32)           107.3455         estimate D2E/DX2                !
 ! A212  A(31,30,32)           112.8915         estimate D2E/DX2                !
 ! A213  A(30,32,33)            98.3243         estimate D2E/DX2                !
 ! A214  A(24,33,34)           134.9725         estimate D2E/DX2                !
 ! A215  A(24,33,35)           109.8238         estimate D2E/DX2                !
 ! A216  A(25,33,32)           110.4981         estimate D2E/DX2                !
 ! A217  A(25,33,34)           109.4947         estimate D2E/DX2                !
 ! A218  A(25,33,35)           102.15           estimate D2E/DX2                !
 ! A219  A(32,33,34)           113.463          estimate D2E/DX2                !
 ! A220  A(32,33,35)           105.6712         estimate D2E/DX2                !
 ! A221  A(32,33,36)           100.2947         estimate D2E/DX2                !
 ! A222  A(34,33,35)           114.944          estimate D2E/DX2                !
 ! A223  A(34,33,36)           146.0983         estimate D2E/DX2                !
 ! A224  A(13,36,24)            77.1748         estimate D2E/DX2                !
 ! A225  A(13,36,25)           103.3735         estimate D2E/DX2                !
 ! A226  A(13,36,33)           131.7917         estimate D2E/DX2                !
 ! A227  A(13,36,35)           152.7999         estimate D2E/DX2                !
 ! A228  A(13,36,38)           100.1104         estimate D2E/DX2                !
 ! A229  A(17,36,25)           103.6893         estimate D2E/DX2                !
 ! A230  A(17,36,33)            89.1515         estimate D2E/DX2                !
 ! A231  A(17,36,35)            96.96           estimate D2E/DX2                !
 ! A232  A(17,36,37)           107.4411         estimate D2E/DX2                !
 ! A233  A(17,36,38)           107.2013         estimate D2E/DX2                !
 ! A234  A(17,36,39)            95.3147         estimate D2E/DX2                !
 ! A235  A(24,36,35)            93.6841         estimate D2E/DX2                !
 ! A236  A(24,36,37)            97.3864         estimate D2E/DX2                !
 ! A237  A(24,36,38)           159.2049         estimate D2E/DX2                !
 ! A238  A(24,36,39)           132.3341         estimate D2E/DX2                !
 ! A239  A(25,36,35)            89.1669         estimate D2E/DX2                !
 ! A240  A(25,36,37)            81.3033         estimate D2E/DX2                !
 ! A241  A(25,36,38)           148.0659         estimate D2E/DX2                !
 ! A242  A(25,36,39)           135.0819         estimate D2E/DX2                !
 ! A243  A(33,36,37)           129.5173         estimate D2E/DX2                !
 ! A244  A(33,36,38)           123.8473         estimate D2E/DX2                !
 ! A245  A(35,36,37)           155.2604         estimate D2E/DX2                !
 ! A246  A(35,36,38)            79.3478         estimate D2E/DX2                !
 ! A247  A(35,36,39)           128.7771         estimate D2E/DX2                !
 ! A248  A(37,36,38)            96.8342         estimate D2E/DX2                !
 ! A249  A(13,39,38)           114.1619         estimate D2E/DX2                !
 ! A250  A(13,39,40)           125.1922         estimate D2E/DX2                !
 ! A251  A(13,39,41)           138.7251         estimate D2E/DX2                !
 ! A252  A(16,39,36)            96.2273         estimate D2E/DX2                !
 ! A253  A(16,39,37)           112.3281         estimate D2E/DX2                !
 ! A254  A(16,39,38)           103.7005         estimate D2E/DX2                !
 ! A255  A(16,39,40)           111.5154         estimate D2E/DX2                !
 ! A256  A(16,39,41)            85.5112         estimate D2E/DX2                !
 ! A257  A(36,39,40)           151.4641         estimate D2E/DX2                !
 ! A258  A(36,39,41)           143.2617         estimate D2E/DX2                !
 ! A259  A(37,39,38)           100.4536         estimate D2E/DX2                !
 ! A260  A(37,39,40)           107.9755         estimate D2E/DX2                !
 ! A261  A(37,39,41)           157.0261         estimate D2E/DX2                !
 ! A262  A(38,39,40)           120.4482         estimate D2E/DX2                !
 ! A263  A(38,39,41)            88.522          estimate D2E/DX2                !
 ! A264  A(39,40,42)           102.6872         estimate D2E/DX2                !
 ! A265  A(39,41,42)           101.6473         estimate D2E/DX2                !
 ! A266  A(19,42,40)           127.7892         estimate D2E/DX2                !
 ! A267  A(19,42,41)           115.369          estimate D2E/DX2                !
 ! A268  A(19,42,43)            91.9869         estimate D2E/DX2                !
 ! A269  A(19,42,44)           111.152          estimate D2E/DX2                !
 ! A270  A(40,42,43)            62.2443         estimate D2E/DX2                !
 ! A271  A(40,42,44)           120.3942         estimate D2E/DX2                !
 ! A272  A(41,42,43)           113.2135         estimate D2E/DX2                !
 ! A273  A(41,42,44)           111.5417         estimate D2E/DX2                !
 ! A274  A(43,42,44)           112.2477         estimate D2E/DX2                !
 ! A275  L(4,9,26,2,-1)        191.0443         estimate D2E/DX2                !
 ! A276  L(6,9,27,1,-1)        191.8012         estimate D2E/DX2                !
 ! A277  L(8,9,11,1,-1)        194.2046         estimate D2E/DX2                !
 ! A278  L(21,12,27,2,-1)      182.6268         estimate D2E/DX2                !
 ! A279  L(6,13,36,10,-1)      169.7931         estimate D2E/DX2                !
 ! A280  L(7,13,17,8,-1)       173.5036         estimate D2E/DX2                !
 ! A281  L(10,24,32,17,-1)     169.7459         estimate D2E/DX2                !
 ! A282  L(25,24,26,10,-1)     165.8596         estimate D2E/DX2                !
 ! A283  L(33,36,39,17,-1)     184.4662         estimate D2E/DX2                !
 ! A284  L(4,9,26,2,-2)        188.6086         estimate D2E/DX2                !
 ! A285  L(6,9,27,1,-2)        186.7878         estimate D2E/DX2                !
 ! A286  L(8,9,11,1,-2)        175.7169         estimate D2E/DX2                !
 ! A287  L(21,12,27,2,-2)      180.2753         estimate D2E/DX2                !
 ! A288  L(6,13,36,10,-2)      188.3814         estimate D2E/DX2                !
 ! A289  L(7,13,17,8,-2)       169.4263         estimate D2E/DX2                !
 ! A290  L(10,24,32,17,-2)     171.2127         estimate D2E/DX2                !
 ! A291  L(25,24,26,10,-2)     184.7493         estimate D2E/DX2                !
 ! A292  L(33,36,39,17,-2)     174.5565         estimate D2E/DX2                !
 ! D1    D(2,1,3,6)             85.6056         estimate D2E/DX2                !
 ! D2    D(4,1,3,6)            -31.1708         estimate D2E/DX2                !
 ! D3    D(5,1,3,6)           -111.9781         estimate D2E/DX2                !
 ! D4    D(9,1,3,6)             25.7248         estimate D2E/DX2                !
 ! D5    D(12,1,3,6)            82.8002         estimate D2E/DX2                !
 ! D6    D(23,1,3,6)           173.3289         estimate D2E/DX2                !
 ! D7    D(2,1,4,6)            -70.6028         estimate D2E/DX2                !
 ! D8    D(3,1,4,6)             31.4407         estimate D2E/DX2                !
 ! D9    D(5,1,4,6)           -177.8202         estimate D2E/DX2                !
 ! D10   D(12,1,4,6)          -122.8745         estimate D2E/DX2                !
 ! D11   D(23,1,4,6)           106.3594         estimate D2E/DX2                !
 ! D12   D(2,1,5,21)            69.3424         estimate D2E/DX2                !
 ! D13   D(3,1,5,21)           -92.5574         estimate D2E/DX2                !
 ! D14   D(4,1,5,21)          -174.3888         estimate D2E/DX2                !
 ! D15   D(9,1,5,21)           127.6777         estimate D2E/DX2                !
 ! D16   D(23,1,5,21)          -18.8665         estimate D2E/DX2                !
 ! D17   D(3,1,9,6)            -21.9139         estimate D2E/DX2                !
 ! D18   D(3,1,9,8)             14.3081         estimate D2E/DX2                !
 ! D19   D(3,1,9,10)           -73.3439         estimate D2E/DX2                !
 ! D20   D(3,1,9,11)          -161.4089         estimate D2E/DX2                !
 ! D21   D(3,1,9,26)            91.048          estimate D2E/DX2                !
 ! D22   D(3,1,9,27)           151.2983         estimate D2E/DX2                !
 ! D23   D(5,1,9,6)            138.5894         estimate D2E/DX2                !
 ! D24   D(5,1,9,8)            174.8114         estimate D2E/DX2                !
 ! D25   D(5,1,9,10)            87.1594         estimate D2E/DX2                !
 ! D26   D(5,1,9,11)            -0.9055         estimate D2E/DX2                !
 ! D27   D(5,1,9,26)          -108.4487         estimate D2E/DX2                !
 ! D28   D(5,1,9,27)           -48.1984         estimate D2E/DX2                !
 ! D29   D(23,1,9,6)          -127.2333         estimate D2E/DX2                !
 ! D30   D(23,1,9,8)           -91.0113         estimate D2E/DX2                !
 ! D31   D(23,1,9,10)         -178.6633         estimate D2E/DX2                !
 ! D32   D(23,1,9,11)           93.2718         estimate D2E/DX2                !
 ! D33   D(23,1,9,26)          -14.2714         estimate D2E/DX2                !
 ! D34   D(23,1,9,27)           45.9789         estimate D2E/DX2                !
 ! D35   D(3,1,12,11)         -113.3421         estimate D2E/DX2                !
 ! D36   D(3,1,12,14)           89.4679         estimate D2E/DX2                !
 ! D37   D(3,1,12,15)           -3.5298         estimate D2E/DX2                !
 ! D38   D(3,1,12,21)          116.1265         estimate D2E/DX2                !
 ! D39   D(3,1,12,27)          -66.2661         estimate D2E/DX2                !
 ! D40   D(4,1,12,11)           -2.0019         estimate D2E/DX2                !
 ! D41   D(4,1,12,14)         -159.1919         estimate D2E/DX2                !
 ! D42   D(4,1,12,15)          107.8104         estimate D2E/DX2                !
 ! D43   D(4,1,12,21)         -132.5333         estimate D2E/DX2                !
 ! D44   D(4,1,12,27)           45.074          estimate D2E/DX2                !
 ! D45   D(23,1,12,11)         159.0315         estimate D2E/DX2                !
 ! D46   D(23,1,12,14)           1.8415         estimate D2E/DX2                !
 ! D47   D(23,1,12,15)         -91.1562         estimate D2E/DX2                !
 ! D48   D(23,1,12,21)          28.5001         estimate D2E/DX2                !
 ! D49   D(23,1,12,27)        -153.8925         estimate D2E/DX2                !
 ! D50   D(2,1,23,21)          -87.6194         estimate D2E/DX2                !
 ! D51   D(3,1,23,21)          171.2753         estimate D2E/DX2                !
 ! D52   D(4,1,23,21)           95.1036         estimate D2E/DX2                !
 ! D53   D(5,1,23,21)           19.7393         estimate D2E/DX2                !
 ! D54   D(9,1,23,21)          -76.6844         estimate D2E/DX2                !
 ! D55   D(12,1,23,21)         -36.6003         estimate D2E/DX2                !
 ! D56   D(1,2,9,12)           -83.2265         estimate D2E/DX2                !
 ! D57   D(1,3,6,4)             30.3791         estimate D2E/DX2                !
 ! D58   D(1,3,6,7)             95.6264         estimate D2E/DX2                !
 ! D59   D(1,3,6,8)            -74.9503         estimate D2E/DX2                !
 ! D60   D(1,3,6,9)            -21.037          estimate D2E/DX2                !
 ! D61   D(1,3,6,13)           -74.7392         estimate D2E/DX2                !
 ! D62   D(1,3,6,18)          -178.3825         estimate D2E/DX2                !
 ! D63   D(1,3,6,20)          -172.8225         estimate D2E/DX2                !
 ! D64   D(1,4,6,3)            -29.9028         estimate D2E/DX2                !
 ! D65   D(1,4,6,7)            178.1138         estimate D2E/DX2                !
 ! D66   D(1,4,6,8)             73.8162         estimate D2E/DX2                !
 ! D67   D(1,4,6,13)           129.4637         estimate D2E/DX2                !
 ! D68   D(1,4,6,18)          -179.8206         estimate D2E/DX2                !
 ! D69   D(1,4,6,20)           -92.5633         estimate D2E/DX2                !
 ! D70   D(1,5,21,14)          -92.8323         estimate D2E/DX2                !
 ! D71   D(1,5,21,22)          143.6876         estimate D2E/DX2                !
 ! D72   D(1,5,21,23)           22.9015         estimate D2E/DX2                !
 ! D73   D(3,6,9,1)             19.893          estimate D2E/DX2                !
 ! D74   D(3,6,9,2)            -28.6691         estimate D2E/DX2                !
 ! D75   D(3,6,9,10)           169.5499         estimate D2E/DX2                !
 ! D76   D(3,6,9,11)            94.762          estimate D2E/DX2                !
 ! D77   D(3,6,9,12)            13.8356         estimate D2E/DX2                !
 ! D78   D(3,6,9,26)          -111.9818         estimate D2E/DX2                !
 ! D79   D(7,6,9,1)           -132.3645         estimate D2E/DX2                !
 ! D80   D(7,6,9,2)            179.0735         estimate D2E/DX2                !
 ! D81   D(7,6,9,10)            17.2925         estimate D2E/DX2                !
 ! D82   D(7,6,9,11)           -57.4955         estimate D2E/DX2                !
 ! D83   D(7,6,9,12)          -138.4219         estimate D2E/DX2                !
 ! D84   D(7,6,9,26)            95.7607         estimate D2E/DX2                !
 ! D85   D(13,6,9,1)          -177.5811         estimate D2E/DX2                !
 ! D86   D(13,6,9,2)           133.8569         estimate D2E/DX2                !
 ! D87   D(13,6,9,10)          -27.9241         estimate D2E/DX2                !
 ! D88   D(13,6,9,11)         -102.7121         estimate D2E/DX2                !
 ! D89   D(13,6,9,12)          176.3615         estimate D2E/DX2                !
 ! D90   D(13,6,9,26)           50.5441         estimate D2E/DX2                !
 ! D91   D(18,6,9,1)           177.6919         estimate D2E/DX2                !
 ! D92   D(18,6,9,2)           129.1298         estimate D2E/DX2                !
 ! D93   D(18,6,9,10)          -32.6512         estimate D2E/DX2                !
 ! D94   D(18,6,9,11)         -107.4391         estimate D2E/DX2                !
 ! D95   D(18,6,9,12)          171.6344         estimate D2E/DX2                !
 ! D96   D(18,6,9,26)           45.817          estimate D2E/DX2                !
 ! D97   D(20,6,9,1)            98.9798         estimate D2E/DX2                !
 ! D98   D(20,6,9,2)            50.4177         estimate D2E/DX2                !
 ! D99   D(20,6,9,10)         -111.3633         estimate D2E/DX2                !
 ! D100  D(20,6,9,11)          173.8488         estimate D2E/DX2                !
 ! D101  D(20,6,9,12)           92.9224         estimate D2E/DX2                !
 ! D102  D(20,6,9,26)          -32.895          estimate D2E/DX2                !
 ! D103  D(3,6,13,10)           84.2066         estimate D2E/DX2                !
 ! D104  D(3,6,13,16)          -78.7581         estimate D2E/DX2                !
 ! D105  D(3,6,13,17)            6.68           estimate D2E/DX2                !
 ! D106  D(3,6,13,37)          153.9548         estimate D2E/DX2                !
 ! D107  D(3,6,13,39)         -124.6757         estimate D2E/DX2                !
 ! D108  D(4,6,13,10)          -18.3823         estimate D2E/DX2                !
 ! D109  D(4,6,13,16)          178.653          estimate D2E/DX2                !
 ! D110  D(4,6,13,17)          -95.909          estimate D2E/DX2                !
 ! D111  D(4,6,13,37)           51.3659         estimate D2E/DX2                !
 ! D112  D(4,6,13,39)          132.7354         estimate D2E/DX2                !
 ! D113  D(9,6,13,10)           27.7852         estimate D2E/DX2                !
 ! D114  D(9,6,13,16)         -135.1796         estimate D2E/DX2                !
 ! D115  D(9,6,13,17)          -49.7415         estimate D2E/DX2                !
 ! D116  D(9,6,13,37)           97.5333         estimate D2E/DX2                !
 ! D117  D(9,6,13,39)          178.9028         estimate D2E/DX2                !
 ! D118  D(20,6,13,10)         179.0061         estimate D2E/DX2                !
 ! D119  D(20,6,13,16)          16.0413         estimate D2E/DX2                !
 ! D120  D(20,6,13,17)         101.4794         estimate D2E/DX2                !
 ! D121  D(20,6,13,37)        -111.2457         estimate D2E/DX2                !
 ! D122  D(20,6,13,39)         -29.8762         estimate D2E/DX2                !
 ! D123  D(3,6,18,16)          111.534          estimate D2E/DX2                !
 ! D124  D(3,6,18,19)           20.2866         estimate D2E/DX2                !
 ! D125  D(4,6,18,16)         -110.7319         estimate D2E/DX2                !
 ! D126  D(4,6,18,19)          158.0207         estimate D2E/DX2                !
 ! D127  D(8,6,18,16)            1.9492         estimate D2E/DX2                !
 ! D128  D(8,6,18,19)          -89.2982         estimate D2E/DX2                !
 ! D129  D(9,6,18,16)          -37.9395         estimate D2E/DX2                !
 ! D130  D(9,6,18,19)         -129.1869         estimate D2E/DX2                !
 ! D131  D(6,7,13,18)          -77.3256         estimate D2E/DX2                !
 ! D132  D(13,8,9,1)          -127.143          estimate D2E/DX2                !
 ! D133  D(13,8,9,2)           179.232          estimate D2E/DX2                !
 ! D134  D(13,8,9,4)           -71.6252         estimate D2E/DX2                !
 ! D135  D(13,8,9,10)           12.4389         estimate D2E/DX2                !
 ! D136  D(13,8,9,12)          172.192          estimate D2E/DX2                !
 ! D137  D(13,8,9,26)           96.6823         estimate D2E/DX2                !
 ! D138  D(13,8,9,27)           94.6417         estimate D2E/DX2                !
 ! D139  D(9,8,13,7)            73.6022         estimate D2E/DX2                !
 ! D140  D(9,8,13,10)          -12.3854         estimate D2E/DX2                !
 ! D141  D(9,8,13,16)          179.9701         estimate D2E/DX2                !
 ! D142  D(9,8,13,17)          -95.8242         estimate D2E/DX2                !
 ! D143  D(9,8,13,18)          127.0016         estimate D2E/DX2                !
 ! D144  D(9,8,13,36)          -90.5802         estimate D2E/DX2                !
 ! D145  D(9,8,13,37)          -25.5109         estimate D2E/DX2                !
 ! D146  D(9,8,13,39)         -172.4464         estimate D2E/DX2                !
 ! D147  D(1,9,10,13)           80.2898         estimate D2E/DX2                !
 ! D148  D(1,9,10,24)          179.5088         estimate D2E/DX2                !
 ! D149  D(2,9,10,13)          -59.4814         estimate D2E/DX2                !
 ! D150  D(2,9,10,24)           39.7376         estimate D2E/DX2                !
 ! D151  D(4,9,10,13)           84.7591         estimate D2E/DX2                !
 ! D152  D(4,9,10,24)         -176.0219         estimate D2E/DX2                !
 ! D153  D(6,9,10,13)           33.7384         estimate D2E/DX2                !
 ! D154  D(6,9,10,24)          132.9574         estimate D2E/DX2                !
 ! D155  D(8,9,10,13)          -12.6261         estimate D2E/DX2                !
 ! D156  D(8,9,10,24)           86.5929         estimate D2E/DX2                !
 ! D157  D(11,9,10,13)         173.2913         estimate D2E/DX2                !
 ! D158  D(11,9,10,24)         -87.4897         estimate D2E/DX2                !
 ! D159  D(12,9,10,13)        -172.4974         estimate D2E/DX2                !
 ! D160  D(12,9,10,24)         -73.2784         estimate D2E/DX2                !
 ! D161  D(26,9,10,13)         -88.9371         estimate D2E/DX2                !
 ! D162  D(26,9,10,24)          10.2819         estimate D2E/DX2                !
 ! D163  D(27,9,10,13)        -135.3582         estimate D2E/DX2                !
 ! D164  D(27,9,10,24)         -36.1392         estimate D2E/DX2                !
 ! D165  D(4,9,12,5)             2.1018         estimate D2E/DX2                !
 ! D166  D(4,9,12,14)          -87.1699         estimate D2E/DX2                !
 ! D167  D(4,9,12,15)          165.499          estimate D2E/DX2                !
 ! D168  D(4,9,12,21)          -37.1179         estimate D2E/DX2                !
 ! D169  D(6,9,12,5)            49.6561         estimate D2E/DX2                !
 ! D170  D(6,9,12,14)          -39.6156         estimate D2E/DX2                !
 ! D171  D(6,9,12,15)         -146.9468         estimate D2E/DX2                !
 ! D172  D(6,9,12,21)           10.4363         estimate D2E/DX2                !
 ! D173  D(8,9,12,5)           116.2374         estimate D2E/DX2                !
 ! D174  D(8,9,12,14)           26.9657         estimate D2E/DX2                !
 ! D175  D(8,9,12,15)          -80.3655         estimate D2E/DX2                !
 ! D176  D(8,9,12,21)           77.0176         estimate D2E/DX2                !
 ! D177  D(10,9,12,5)          -93.7371         estimate D2E/DX2                !
 ! D178  D(10,9,12,14)         176.9911         estimate D2E/DX2                !
 ! D179  D(10,9,12,15)          69.66           estimate D2E/DX2                !
 ! D180  D(10,9,12,21)        -132.9569         estimate D2E/DX2                !
 ! D181  D(26,9,12,5)         -174.0582         estimate D2E/DX2                !
 ! D182  D(26,9,12,14)          96.6701         estimate D2E/DX2                !
 ! D183  D(26,9,12,15)         -10.6611         estimate D2E/DX2                !
 ! D184  D(26,9,12,21)         146.722          estimate D2E/DX2                !
 ! D185  D(1,9,26,24)         -179.6955         estimate D2E/DX2                !
 ! D186  D(2,9,26,24)          179.162          estimate D2E/DX2                !
 ! D187  D(6,9,26,24)          -89.6578         estimate D2E/DX2                !
 ! D188  D(8,9,26,24)          -94.2899         estimate D2E/DX2                !
 ! D189  D(10,9,26,24)          -9.7555         estimate D2E/DX2                !
 ! D190  D(11,9,26,24)          72.7216         estimate D2E/DX2                !
 ! D191  D(12,9,26,24)         127.1544         estimate D2E/DX2                !
 ! D192  D(1,9,27,15)          -22.5531         estimate D2E/DX2                !
 ! D193  D(1,9,27,28)          139.1592         estimate D2E/DX2                !
 ! D194  D(1,9,27,29)         -117.6008         estimate D2E/DX2                !
 ! D195  D(2,9,27,15)           21.9901         estimate D2E/DX2                !
 ! D196  D(2,9,27,28)         -176.2976         estimate D2E/DX2                !
 ! D197  D(2,9,27,29)          -73.0576         estimate D2E/DX2                !
 ! D198  D(4,9,27,15)          -96.6169         estimate D2E/DX2                !
 ! D199  D(4,9,27,28)           65.0953         estimate D2E/DX2                !
 ! D200  D(4,9,27,29)          168.3354         estimate D2E/DX2                !
 ! D201  D(8,9,27,15)          104.5196         estimate D2E/DX2                !
 ! D202  D(8,9,27,28)          -93.7682         estimate D2E/DX2                !
 ! D203  D(8,9,27,29)            9.4718         estimate D2E/DX2                !
 ! D204  D(10,9,27,15)        -175.6137         estimate D2E/DX2                !
 ! D205  D(10,9,27,28)         -13.9015         estimate D2E/DX2                !
 ! D206  D(10,9,27,29)          89.3385         estimate D2E/DX2                !
 ! D207  D(9,10,13,6)          -34.003          estimate D2E/DX2                !
 ! D208  D(9,10,13,7)          -84.1785         estimate D2E/DX2                !
 ! D209  D(9,10,13,8)           12.686          estimate D2E/DX2                !
 ! D210  D(9,10,13,16)          59.5408         estimate D2E/DX2                !
 ! D211  D(9,10,13,17)          90.5597         estimate D2E/DX2                !
 ! D212  D(9,10,13,18)         -64.9033         estimate D2E/DX2                !
 ! D213  D(9,10,13,36)         137.6155         estimate D2E/DX2                !
 ! D214  D(9,10,13,37)        -171.5141         estimate D2E/DX2                !
 ! D215  D(9,10,13,39)         175.1762         estimate D2E/DX2                !
 ! D216  D(24,10,13,6)        -135.1594         estimate D2E/DX2                !
 ! D217  D(24,10,13,7)         174.6651         estimate D2E/DX2                !
 ! D218  D(24,10,13,8)         -88.4704         estimate D2E/DX2                !
 ! D219  D(24,10,13,16)        -41.6156         estimate D2E/DX2                !
 ! D220  D(24,10,13,17)        -10.5966         estimate D2E/DX2                !
 ! D221  D(24,10,13,18)       -166.0596         estimate D2E/DX2                !
 ! D222  D(24,10,13,36)         36.4592         estimate D2E/DX2                !
 ! D223  D(24,10,13,37)         87.3295         estimate D2E/DX2                !
 ! D224  D(24,10,13,39)         74.0198         estimate D2E/DX2                !
 ! D225  D(9,10,24,17)         -87.4777         estimate D2E/DX2                !
 ! D226  D(9,10,24,25)         174.6323         estimate D2E/DX2                !
 ! D227  D(9,10,24,26)         -10.117          estimate D2E/DX2                !
 ! D228  D(9,10,24,28)          81.9343         estimate D2E/DX2                !
 ! D229  D(9,10,24,30)          65.5501         estimate D2E/DX2                !
 ! D230  D(9,10,24,33)        -168.5871         estimate D2E/DX2                !
 ! D231  D(9,10,24,36)        -133.4912         estimate D2E/DX2                !
 ! D232  D(13,10,24,17)         10.7735         estimate D2E/DX2                !
 ! D233  D(13,10,24,25)        -87.1165         estimate D2E/DX2                !
 ! D234  D(13,10,24,26)         88.1342         estimate D2E/DX2                !
 ! D235  D(13,10,24,28)       -179.8145         estimate D2E/DX2                !
 ! D236  D(13,10,24,30)        163.8012         estimate D2E/DX2                !
 ! D237  D(13,10,24,33)        -70.336          estimate D2E/DX2                !
 ! D238  D(13,10,24,36)        -35.24           estimate D2E/DX2                !
 ! D239  D(9,11,12,27)         -81.0576         estimate D2E/DX2                !
 ! D240  D(1,12,21,22)         143.519          estimate D2E/DX2                !
 ! D241  D(1,12,21,23)         -34.6001         estimate D2E/DX2                !
 ! D242  D(2,12,21,22)        -169.8478         estimate D2E/DX2                !
 ! D243  D(2,12,21,23)          12.0331         estimate D2E/DX2                !
 ! D244  D(9,12,21,22)         139.5994         estimate D2E/DX2                !
 ! D245  D(9,12,21,23)         -38.5197         estimate D2E/DX2                !
 ! D246  D(11,12,21,22)         74.4176         estimate D2E/DX2                !
 ! D247  D(11,12,21,23)       -103.7014         estimate D2E/DX2                !
 ! D248  D(15,12,21,22)        -67.5984         estimate D2E/DX2                !
 ! D249  D(15,12,21,23)        114.2825         estimate D2E/DX2                !
 ! D250  D(1,12,27,26)          41.7967         estimate D2E/DX2                !
 ! D251  D(1,12,27,28)         -72.2518         estimate D2E/DX2                !
 ! D252  D(1,12,27,29)         145.4855         estimate D2E/DX2                !
 ! D253  D(2,12,27,26)          -5.9479         estimate D2E/DX2                !
 ! D254  D(2,12,27,28)        -119.9964         estimate D2E/DX2                !
 ! D255  D(2,12,27,29)          97.7409         estimate D2E/DX2                !
 ! D256  D(5,12,27,26)         106.3005         estimate D2E/DX2                !
 ! D257  D(5,12,27,28)          -7.748          estimate D2E/DX2                !
 ! D258  D(5,12,27,29)        -150.0107         estimate D2E/DX2                !
 ! D259  D(14,12,27,26)       -103.9525         estimate D2E/DX2                !
 ! D260  D(14,12,27,28)        141.999          estimate D2E/DX2                !
 ! D261  D(14,12,27,29)         -0.2637         estimate D2E/DX2                !
 ! D262  D(6,13,17,24)          89.9758         estimate D2E/DX2                !
 ! D263  D(8,13,17,24)          95.1295         estimate D2E/DX2                !
 ! D264  D(10,13,17,24)         10.5769         estimate D2E/DX2                !
 ! D265  D(16,13,17,24)       -178.1461         estimate D2E/DX2                !
 ! D266  D(18,13,17,24)        167.7143         estimate D2E/DX2                !
 ! D267  D(37,13,17,24)        -67.4192         estimate D2E/DX2                !
 ! D268  D(39,13,17,24)       -123.2957         estimate D2E/DX2                !
 ! D269  D(8,13,18,19)          90.0517         estimate D2E/DX2                !
 ! D270  D(8,13,18,20)         -12.0982         estimate D2E/DX2                !
 ! D271  D(10,13,18,19)        166.1063         estimate D2E/DX2                !
 ! D272  D(10,13,18,20)         63.9564         estimate D2E/DX2                !
 ! D273  D(17,13,18,19)         21.4221         estimate D2E/DX2                !
 ! D274  D(17,13,18,20)        -80.7278         estimate D2E/DX2                !
 ! D275  D(36,13,18,19)        -45.5385         estimate D2E/DX2                !
 ! D276  D(36,13,18,20)       -147.6884         estimate D2E/DX2                !
 ! D277  D(37,13,18,19)        -98.8502         estimate D2E/DX2                !
 ! D278  D(37,13,18,20)        158.9999         estimate D2E/DX2                !
 ! D279  D(39,13,18,19)        -54.6169         estimate D2E/DX2                !
 ! D280  D(39,13,18,20)       -156.7668         estimate D2E/DX2                !
 ! D281  D(7,13,36,24)        -108.5519         estimate D2E/DX2                !
 ! D282  D(7,13,36,25)         -65.7045         estimate D2E/DX2                !
 ! D283  D(7,13,36,33)        -110.8405         estimate D2E/DX2                !
 ! D284  D(7,13,36,35)         178.8338         estimate D2E/DX2                !
 ! D285  D(7,13,36,38)          92.4922         estimate D2E/DX2                !
 ! D286  D(8,13,36,24)          47.9049         estimate D2E/DX2                !
 ! D287  D(8,13,36,25)          90.7523         estimate D2E/DX2                !
 ! D288  D(8,13,36,33)          45.6163         estimate D2E/DX2                !
 ! D289  D(8,13,36,35)         -24.7094         estimate D2E/DX2                !
 ! D290  D(8,13,36,38)        -111.051          estimate D2E/DX2                !
 ! D291  D(10,13,36,24)        -29.6556         estimate D2E/DX2                !
 ! D292  D(10,13,36,25)         13.1918         estimate D2E/DX2                !
 ! D293  D(10,13,36,33)        -31.9442         estimate D2E/DX2                !
 ! D294  D(10,13,36,35)       -102.2699         estimate D2E/DX2                !
 ! D295  D(10,13,36,38)        171.3885         estimate D2E/DX2                !
 ! D296  D(16,13,36,24)        133.7146         estimate D2E/DX2                !
 ! D297  D(16,13,36,25)        176.5619         estimate D2E/DX2                !
 ! D298  D(16,13,36,33)        131.4259         estimate D2E/DX2                !
 ! D299  D(16,13,36,35)         61.1002         estimate D2E/DX2                !
 ! D300  D(16,13,36,38)        -25.2414         estimate D2E/DX2                !
 ! D301  D(18,13,36,24)        170.8964         estimate D2E/DX2                !
 ! D302  D(18,13,36,25)       -146.2563         estimate D2E/DX2                !
 ! D303  D(18,13,36,33)        168.6077         estimate D2E/DX2                !
 ! D304  D(18,13,36,35)         98.2821         estimate D2E/DX2                !
 ! D305  D(18,13,36,38)         11.9404         estimate D2E/DX2                !
 ! D306  D(6,13,39,38)         151.2948         estimate D2E/DX2                !
 ! D307  D(6,13,39,40)         -33.8224         estimate D2E/DX2                !
 ! D308  D(6,13,39,41)          33.3741         estimate D2E/DX2                !
 ! D309  D(7,13,39,38)        -165.4959         estimate D2E/DX2                !
 ! D310  D(7,13,39,40)           9.3868         estimate D2E/DX2                !
 ! D311  D(7,13,39,41)          76.5834         estimate D2E/DX2                !
 ! D312  D(8,13,39,38)          81.704          estimate D2E/DX2                !
 ! D313  D(8,13,39,40)        -103.4132         estimate D2E/DX2                !
 ! D314  D(8,13,39,41)         -36.2167         estimate D2E/DX2                !
 ! D315  D(10,13,39,38)        -70.4168         estimate D2E/DX2                !
 ! D316  D(10,13,39,40)        104.4659         estimate D2E/DX2                !
 ! D317  D(10,13,39,41)        171.6625         estimate D2E/DX2                !
 ! D318  D(17,13,39,38)         10.1446         estimate D2E/DX2                !
 ! D319  D(17,13,39,40)       -174.9726         estimate D2E/DX2                !
 ! D320  D(17,13,39,41)       -107.7761         estimate D2E/DX2                !
 ! D321  D(18,13,39,38)        146.4539         estimate D2E/DX2                !
 ! D322  D(18,13,39,40)        -38.6634         estimate D2E/DX2                !
 ! D323  D(18,13,39,41)         28.5332         estimate D2E/DX2                !
 ! D324  D(39,16,18,6)         115.9137         estimate D2E/DX2                !
 ! D325  D(39,16,18,7)          61.5762         estimate D2E/DX2                !
 ! D326  D(39,16,18,19)       -110.2803         estimate D2E/DX2                !
 ! D327  D(39,16,18,20)        170.9915         estimate D2E/DX2                !
 ! D328  D(18,16,39,36)       -124.5546         estimate D2E/DX2                !
 ! D329  D(18,16,39,37)        -72.7339         estimate D2E/DX2                !
 ! D330  D(18,16,39,38)        179.6876         estimate D2E/DX2                !
 ! D331  D(18,16,39,40)         48.6333         estimate D2E/DX2                !
 ! D332  D(18,16,39,41)         92.3108         estimate D2E/DX2                !
 ! D333  D(13,17,24,10)        -10.4065         estimate D2E/DX2                !
 ! D334  D(13,17,24,25)         73.7232         estimate D2E/DX2                !
 ! D335  D(13,17,24,26)        -92.6387         estimate D2E/DX2                !
 ! D336  D(13,17,24,28)        -48.5828         estimate D2E/DX2                !
 ! D337  D(13,17,24,30)       -161.4047         estimate D2E/DX2                !
 ! D338  D(13,17,24,32)        178.3808         estimate D2E/DX2                !
 ! D339  D(13,17,24,33)        125.3782         estimate D2E/DX2                !
 ! D340  D(6,18,19,42)        -174.6607         estimate D2E/DX2                !
 ! D341  D(7,18,19,42)         -65.8653         estimate D2E/DX2                !
 ! D342  D(13,18,19,42)         82.8952         estimate D2E/DX2                !
 ! D343  D(16,18,19,42)         85.9954         estimate D2E/DX2                !
 ! D344  D(20,18,19,42)       -164.0887         estimate D2E/DX2                !
 ! D345  D(18,19,42,40)        -15.4371         estimate D2E/DX2                !
 ! D346  D(18,19,42,41)        -76.6155         estimate D2E/DX2                !
 ! D347  D(18,19,42,43)         40.3168         estimate D2E/DX2                !
 ! D348  D(18,19,42,44)        155.128          estimate D2E/DX2                !
 ! D349  D(5,21,23,1)          -21.8571         estimate D2E/DX2                !
 ! D350  D(12,21,23,1)          35.1496         estimate D2E/DX2                !
 ! D351  D(14,21,23,1)          90.7009         estimate D2E/DX2                !
 ! D352  D(22,21,23,1)        -143.763          estimate D2E/DX2                !
 ! D353  D(10,24,26,9)           9.6102         estimate D2E/DX2                !
 ! D354  D(10,24,26,27)         84.832          estimate D2E/DX2                !
 ! D355  D(17,24,26,9)          93.7079         estimate D2E/DX2                !
 ! D356  D(17,24,26,27)        168.9296         estimate D2E/DX2                !
 ! D357  D(28,24,26,9)         -74.4199         estimate D2E/DX2                !
 ! D358  D(28,24,26,27)          0.8018         estimate D2E/DX2                !
 ! D359  D(30,24,26,9)        -125.6229         estimate D2E/DX2                !
 ! D360  D(30,24,26,27)        -50.4011         estimate D2E/DX2                !
 ! D361  D(32,24,26,9)        -178.3674         estimate D2E/DX2                !
 ! D362  D(32,24,26,27)       -103.1456         estimate D2E/DX2                !
 ! D363  D(33,24,26,9)         165.9923         estimate D2E/DX2                !
 ! D364  D(33,24,26,27)       -118.7859         estimate D2E/DX2                !
 ! D365  D(36,24,26,9)          83.5414         estimate D2E/DX2                !
 ! D366  D(36,24,26,27)        158.7632         estimate D2E/DX2                !
 ! D367  D(10,24,28,27)        -81.2058         estimate D2E/DX2                !
 ! D368  D(17,24,28,27)        -43.2309         estimate D2E/DX2                !
 ! D369  D(25,24,28,27)       -166.1654         estimate D2E/DX2                !
 ! D370  D(26,24,28,27)         -0.7131         estimate D2E/DX2                !
 ! D371  D(32,24,28,27)         87.9575         estimate D2E/DX2                !
 ! D372  D(33,24,28,27)        143.1103         estimate D2E/DX2                !
 ! D373  D(36,24,28,27)       -149.2593         estimate D2E/DX2                !
 ! D374  D(10,24,30,29)        -67.5417         estimate D2E/DX2                !
 ! D375  D(10,24,30,31)        105.5873         estimate D2E/DX2                !
 ! D376  D(17,24,30,29)         70.9929         estimate D2E/DX2                !
 ! D377  D(17,24,30,31)       -115.8782         estimate D2E/DX2                !
 ! D378  D(25,24,30,29)       -167.402          estimate D2E/DX2                !
 ! D379  D(25,24,30,31)          5.7269         estimate D2E/DX2                !
 ! D380  D(26,24,30,29)          5.8044         estimate D2E/DX2                !
 ! D381  D(26,24,30,31)        178.9334         estimate D2E/DX2                !
 ! D382  D(33,24,30,29)        148.0745         estimate D2E/DX2                !
 ! D383  D(33,24,30,31)        -38.7965         estimate D2E/DX2                !
 ! D384  D(36,24,30,29)        143.6143         estimate D2E/DX2                !
 ! D385  D(36,24,30,31)        -43.2568         estimate D2E/DX2                !
 ! D386  D(10,24,33,34)       -103.935          estimate D2E/DX2                !
 ! D387  D(10,24,33,35)         69.6975         estimate D2E/DX2                !
 ! D388  D(17,24,33,34)        177.9018         estimate D2E/DX2                !
 ! D389  D(17,24,33,35)         -8.4657         estimate D2E/DX2                !
 ! D390  D(26,24,33,34)        110.1276         estimate D2E/DX2                !
 ! D391  D(26,24,33,35)        -76.2399         estimate D2E/DX2                !
 ! D392  D(28,24,33,34)         -3.9706         estimate D2E/DX2                !
 ! D393  D(28,24,33,35)        169.6619         estimate D2E/DX2                !
 ! D394  D(30,24,33,34)         39.3065         estimate D2E/DX2                !
 ! D395  D(30,24,33,35)       -147.061          estimate D2E/DX2                !
 ! D396  D(10,24,36,13)         29.3475         estimate D2E/DX2                !
 ! D397  D(10,24,36,35)       -176.5728         estimate D2E/DX2                !
 ! D398  D(10,24,36,37)        -18.7437         estimate D2E/DX2                !
 ! D399  D(10,24,36,38)        114.0482         estimate D2E/DX2                !
 ! D400  D(10,24,36,39)         28.2466         estimate D2E/DX2                !
 ! D401  D(26,24,36,13)        -44.2363         estimate D2E/DX2                !
 ! D402  D(26,24,36,35)        109.8435         estimate D2E/DX2                !
 ! D403  D(26,24,36,37)        -92.3275         estimate D2E/DX2                !
 ! D404  D(26,24,36,38)         40.4645         estimate D2E/DX2                !
 ! D405  D(26,24,36,39)        -45.3371         estimate D2E/DX2                !
 ! D406  D(28,24,36,13)         98.3665         estimate D2E/DX2                !
 ! D407  D(28,24,36,35)       -107.5537         estimate D2E/DX2                !
 ! D408  D(28,24,36,37)         50.2753         estimate D2E/DX2                !
 ! D409  D(28,24,36,38)       -176.9327         estimate D2E/DX2                !
 ! D410  D(28,24,36,39)         97.2657         estimate D2E/DX2                !
 ! D411  D(30,24,36,13)       -172.963          estimate D2E/DX2                !
 ! D412  D(30,24,36,35)        -18.8832         estimate D2E/DX2                !
 ! D413  D(30,24,36,37)        138.9458         estimate D2E/DX2                !
 ! D414  D(30,24,36,38)        -88.2622         estimate D2E/DX2                !
 ! D415  D(30,24,36,39)       -174.0638         estimate D2E/DX2                !
 ! D416  D(32,24,36,13)       -137.0566         estimate D2E/DX2                !
 ! D417  D(32,24,36,35)         17.0231         estimate D2E/DX2                !
 ! D418  D(32,24,36,37)        174.8522         estimate D2E/DX2                !
 ! D419  D(32,24,36,38)        -52.3559         estimate D2E/DX2                !
 ! D420  D(32,24,36,39)       -138.1575         estimate D2E/DX2                !
 ! D421  D(24,25,33,36)        -81.0086         estimate D2E/DX2                !
 ! D422  D(24,26,27,11)        -85.0557         estimate D2E/DX2                !
 ! D423  D(24,26,27,12)       -139.5924         estimate D2E/DX2                !
 ! D424  D(24,26,27,15)        167.2704         estimate D2E/DX2                !
 ! D425  D(24,26,27,28)         -0.8041         estimate D2E/DX2                !
 ! D426  D(24,26,27,29)         86.7322         estimate D2E/DX2                !
 ! D427  D(9,27,28,24)          59.7724         estimate D2E/DX2                !
 ! D428  D(9,27,28,30)         133.628          estimate D2E/DX2                !
 ! D429  D(11,27,28,24)        108.7639         estimate D2E/DX2                !
 ! D430  D(11,27,28,30)       -177.3805         estimate D2E/DX2                !
 ! D431  D(12,27,28,24)        113.6237         estimate D2E/DX2                !
 ! D432  D(12,27,28,30)       -172.5207         estimate D2E/DX2                !
 ! D433  D(15,27,28,24)       -156.5441         estimate D2E/DX2                !
 ! D434  D(15,27,28,30)        -82.6884         estimate D2E/DX2                !
 ! D435  D(26,27,28,24)          0.8662         estimate D2E/DX2                !
 ! D436  D(26,27,28,30)         74.7219         estimate D2E/DX2                !
 ! D437  D(29,27,28,24)        -93.4253         estimate D2E/DX2                !
 ! D438  D(29,27,28,30)        -19.5697         estimate D2E/DX2                !
 ! D439  D(9,27,29,30)         -85.7786         estimate D2E/DX2                !
 ! D440  D(11,27,29,30)         81.5408         estimate D2E/DX2                !
 ! D441  D(12,27,29,30)        175.0398         estimate D2E/DX2                !
 ! D442  D(15,27,29,30)        173.0321         estimate D2E/DX2                !
 ! D443  D(26,27,29,30)        -80.0577         estimate D2E/DX2                !
 ! D444  D(28,27,29,30)         20.7684         estimate D2E/DX2                !
 ! D445  D(27,28,30,29)         23.7433         estimate D2E/DX2                !
 ! D446  D(27,28,30,31)        144.7574         estimate D2E/DX2                !
 ! D447  D(27,28,30,32)        -89.8803         estimate D2E/DX2                !
 ! D448  D(27,29,30,24)         34.3236         estimate D2E/DX2                !
 ! D449  D(27,29,30,28)        -22.7192         estimate D2E/DX2                !
 ! D450  D(27,29,30,31)       -140.2128         estimate D2E/DX2                !
 ! D451  D(27,29,30,32)         93.6989         estimate D2E/DX2                !
 ! D452  D(28,30,32,33)        -61.8519         estimate D2E/DX2                !
 ! D453  D(29,30,32,33)       -171.4433         estimate D2E/DX2                !
 ! D454  D(31,30,32,33)         61.5852         estimate D2E/DX2                !
 ! D455  D(30,32,33,25)         60.8819         estimate D2E/DX2                !
 ! D456  D(30,32,33,34)        -62.5302         estimate D2E/DX2                !
 ! D457  D(30,32,33,35)        170.6525         estimate D2E/DX2                !
 ! D458  D(30,32,33,36)        114.2785         estimate D2E/DX2                !
 ! D459  D(32,33,36,13)        -40.4772         estimate D2E/DX2                !
 ! D460  D(32,33,36,17)          1.2679         estimate D2E/DX2                !
 ! D461  D(32,33,36,37)       -110.8402         estimate D2E/DX2                !
 ! D462  D(32,33,36,38)        111.5219         estimate D2E/DX2                !
 ! D463  D(34,33,36,13)        134.2697         estimate D2E/DX2                !
 ! D464  D(34,33,36,17)        176.0148         estimate D2E/DX2                !
 ! D465  D(34,33,36,37)         63.9067         estimate D2E/DX2                !
 ! D466  D(34,33,36,38)        -73.7312         estimate D2E/DX2                !
 ! D467  D(39,36,37,13)        -70.849          estimate D2E/DX2                !
 ! D468  D(17,36,39,16)          5.7484         estimate D2E/DX2                !
 ! D469  D(17,36,39,40)       -160.896          estimate D2E/DX2                !
 ! D470  D(17,36,39,41)         96.5833         estimate D2E/DX2                !
 ! D471  D(24,36,39,16)         49.9001         estimate D2E/DX2                !
 ! D472  D(24,36,39,40)       -116.7443         estimate D2E/DX2                !
 ! D473  D(24,36,39,41)        140.735          estimate D2E/DX2                !
 ! D474  D(25,36,39,16)        121.2098         estimate D2E/DX2                !
 ! D475  D(25,36,39,40)        -45.4346         estimate D2E/DX2                !
 ! D476  D(25,36,39,41)       -147.9553         estimate D2E/DX2                !
 ! D477  D(35,36,39,16)        -97.5982         estimate D2E/DX2                !
 ! D478  D(35,36,39,40)         95.7574         estimate D2E/DX2                !
 ! D479  D(35,36,39,41)         -6.7633         estimate D2E/DX2                !
 ! D480  D(13,39,40,42)         78.8946         estimate D2E/DX2                !
 ! D481  D(16,39,40,42)         15.2842         estimate D2E/DX2                !
 ! D482  D(36,39,40,42)       -179.0058         estimate D2E/DX2                !
 ! D483  D(37,39,40,42)        139.1483         estimate D2E/DX2                !
 ! D484  D(38,39,40,42)       -106.5221         estimate D2E/DX2                !
 ! D485  D(13,39,41,42)        -42.8788         estimate D2E/DX2                !
 ! D486  D(16,39,41,42)        -65.26           estimate D2E/DX2                !
 ! D487  D(36,39,41,42)       -159.6605         estimate D2E/DX2                !
 ! D488  D(37,39,41,42)         77.0345         estimate D2E/DX2                !
 ! D489  D(38,39,41,42)       -169.1277         estimate D2E/DX2                !
 ! D490  D(39,40,42,19)        -35.916          estimate D2E/DX2                !
 ! D491  D(39,40,42,43)       -104.91           estimate D2E/DX2                !
 ! D492  D(39,40,42,44)        154.2932         estimate D2E/DX2                !
 ! D493  D(39,41,42,19)         70.6343         estimate D2E/DX2                !
 ! D494  D(39,41,42,43)        -33.5542         estimate D2E/DX2                !
 ! D495  D(39,41,42,44)       -161.3029         estimate D2E/DX2                !
 --------------------------------------------------------------------------------
 Trust Radius=3.00D-01 FncErr=1.00D-07 GrdErr=1.00D-06 EigMax=2.50D+02 EigMin=1.00D-04
 Number of steps in this run=    264 maximum allowed number of steps=    264.
 GradGradGradGradGradGradGradGradGradGradGradGradGradGradGradGradGradGrad

                          Input orientation:                          
 ---------------------------------------------------------------------
 Center     Atomic      Atomic             Coordinates (Angstroms)
 Number     Number       Type             X           Y           Z
 ---------------------------------------------------------------------
      1         42           0        0.567620    1.428181   12.334544
      2         16           0        1.553271    3.565079   12.598184
      3         16           0       -1.602704    1.840271   13.118434
      4         16           0       -0.318206    0.933121   10.182259
[...]
 6,0.00010079,-0.00011417,0.00001044,0.00000022,0.00008178,-0.00006594,
 -0.00000853,0.00009818,-0.00003806,-0.00005383,0.00005445,0.00000524,0
 .00000663,-0.00042757,0.00003174,0.00011640,-0.00005144,0.00002742,0.0
 0102555,-0.00014387,-0.00021284,-0.00021017,0.00034160,0.00024401,-0.0
 0014469,-0.00003324,0.00004332,-0.00041670,0.00006002,-0.00001608,0.00
 006352,-0.00018555,-0.00019950,-0.00012946,-0.00050026,0.00022943,-0.0
 0051811,0.00000392,-0.00000554,0.00000774,-0.00002979,0.00005502,-0.00
 008006,-0.00187660,-0.00077251,-0.00283247,0.00016205,-0.00002411,0.00
 033360,-0.00147538,-0.00125639,-0.00042601,-0.00024007,0.00050950,-0.0
 0023520,0.00006619,-0.00019986,0.00018694,-0.00003232,-0.00007202,0.00
 008273,-0.00001715,0.00004830,-0.00002121,0.00004114,-0.00003447,-0.00
 000667,-0.00079035,0.00022853,-0.00045454,-0.00025472,-0.00020197,-0.0
 0002385,0.00002952,-0.00006536,0.00010342,0.00007131,-0.00013509,0.000
 10249,0.00001616,0.00007646,0.00011702,-0.00001819,0.00004407,-0.00010
 747,0.00013244,-0.00000747,0.00004217,-0.00001378,-0.00000667,0.000055
 56,0.00001573,-0.00000394,-0.00004432,0.00055163,0.00030179,-0.0000792
 0,-0.00011949,-0.00005350,0.00014257,0.00050256,-0.00029288,0.00013336
 ,-0.00222834,0.00177771,-0.00099014,-0.00233503,0.00093893,0.00113823,
 -0.00222019,-0.00202433,0.00151432,-0.03555828,0.01251349,-0.00338010,
 -0.00070044,0.02072347,0.02218550,0.05789539,-0.00008466,0.00017266,0.
 00012237,-0.00008388,-0.00000975,-0.00002223,0.00011516,-0.00020268,-0
 .00000426,0.00015783,0.00002263,-0.00007281,0.00005279,-0.00000310,0.0
 0000438,-0.00034236,0.00059146,0.00038719,-0.00072033,0.00022339,-0.00
 033943,-0.00007078,-0.00031749,0.00005367,0.00013035,-0.00016486,0.000
 03538,-0.00026206,0.00029602,-0.00020237,0.00005346,0.00002093,0.00000
 260,-0.00013355,-0.00011816,-0.00013704,0.00075678,0.00345291,0.000444
 93,0.00000360,-0.00001805,0.00002689,0.00002672,0.00003688,0.00001524,
 0.00164631,-0.00004065,0.00206168,0.00015283,-0.00042551,-0.00016208,-
 0.00294625,-0.00338778,-0.00019493,0.00122617,0.00172306,0.00055205,0.
 00027423,-0.00007246,-0.00005209,-0.00002394,0.00007772,-0.00000308,0.
 00002271,-0.00004838,0.00002158,0.00002311,-0.00001647,0.00000473,-0.0
 0009390,0.00005389,0.00029268,-0.00009946,0.00034007,0.00017769,-0.000
 01357,0.00001832,-0.00001513,-0.00001599,-0.00005875,0.00000408,0.0000
 2481,-0.00000590,-0.00005331,0.00000395,0.00000501,0.00000402,-0.00003
 633,-0.00004031,0.00006586,0.00003106,0.00000510,-0.00005136,-0.000040
 16,-0.00000505,-0.00002793,-0.00003984,-0.00018928,0.00017871,0.000004
 06,0.00004531,-0.00007867,-0.00047981,0.00000559,-0.00013582,0.0037058
 1,-0.00047624,0.00038455,-0.00065983,0.00232527,-0.00070840,-0.0059104
 7,0.00064707,0.00018811,0.01547992,-0.01775425,0.00008160,0.02188677,-
 0.07043589,-0.07178600,-0.02054486,0.14898767,-0.00007061,-0.00000285,
 0.00004944,-0.00004334,0.00000645,-0.00001840,0.00008965,-0.00003652,0
 .00000892,0.00003661,-0.00000570,-0.00005481,0.00002167,0.00000263,0.0
 0000609,-0.00041348,0.00022368,0.00031493,0.00017407,0.00025280,-0.000
 37636,-0.00010633,-0.00002370,0.00014884,0.00029733,0.00005944,-0.0000
 6048,-0.00004749,-0.00018321,0.00030536,0.00006117,0.00001213,0.000047
 70,-0.00007974,-0.00011195,-0.00005965,0.00145025,0.00097134,-0.001726
 74,0.00000247,-0.00001772,0.00002330,-0.00000751,0.00002482,-0.0000193
 9,-0.00497380,0.00106252,-0.00032870,-0.00004596,0.00000427,0.00030417
 ,-0.00069007,-0.00077999,0.00065883,0.00114276,0.00130601,-0.00487125,
 0.00019894,-0.00004975,-0.00004484,-0.00002486,0.00006026,0.00000054,0
 .00001900,-0.00004449,0.00002080,0.00002224,-0.00001396,0.00000858,0.0
 0007861,0.00035300,-0.00004918,-0.00020429,0.00013305,-0.00021504,-0.0
 0005528,-0.00000227,0.00002653,0.00000740,-0.00009320,-0.00000955,-0.0
 0003863,-0.00002497,0.00005645,0.00000049,0.00002045,-0.00003513,-0.00
 000295,0.00000394,0.00009827,0.00002214,0.00000506,-0.00004408,-0.0000
 2327,-0.00003735,0.00001536,0.00040982,0.00016937,-0.00009226,0.000049
 49,-0.00000935,0.00000228,0.00006148,0.00001231,-0.00013018,-0.0014535
 0,-0.00143697,0.00257920,-0.00122407,-0.00033668,0.00044334,0.00096815
 ,0.00101729,-0.00152170,0.00271752,0.00040393,-0.00834198,0.02145586,-
 0.06942901,-0.05929528,-0.02590978,0.03333327,0.09134355,-0.00023701,0
 .00103809,0.00098373,-0.00066433,-0.00020043,0.00001819,0.00022901,-0.
 00073227,0.00029371,0.00038536,0.00018591,-0.00086454,0.00025414,-0.00
 004591,-0.00002099,-0.00130661,0.00397551,0.00117085,-0.00471427,0.001
 06023,-0.00219954,-0.00065737,-0.00061681,0.00041177,0.00179572,-0.000
 22117,-0.00037578,-0.00046612,0.00097692,-0.00027924,0.00042719,0.0003
 1355,-0.00001615,-0.00113588,-0.00098629,-0.00077192,0.00542761,0.0052
 6388,-0.00270827,-0.00001831,-0.00023279,0.00027194,0.00022384,0.00026
 485,-0.00001427,-0.00027621,0.00068032,-0.00167001,0.00018795,-0.00068
 436,0.00054476,-0.01497004,-0.01088271,-0.00734880,-0.02569823,-0.0100
 3131,-0.01947157,-0.00134536,0.00025340,-0.00237163,-0.00014014,0.0008
 7313,-0.00009830,0.00024263,-0.00055088,0.00025406,0.00011469,-0.00016
 971,0.00008040,-0.00005381,0.00021998,-0.00007246,-0.00030545,-0.00003
 415,0.00028140,-0.00018153,-0.00012052,0.00005323,-0.00010469,-0.00024
 788,-0.00027873,0.00004061,-0.00003116,-0.00002943,0.00005314,0.000113
 11,-0.00003575,-0.00025605,-0.00010155,0.00037871,0.00028408,0.0000283
 1,-0.00032553,-0.00001280,-0.00010306,0.00003504,0.00010187,0.00054875
 ,0.00068951,0.00021978,-0.00002482,-0.00042665,0.00038192,-0.00003696,
 -0.00023573,-0.00031569,-0.00110661,-0.00018497,-0.00184369,0.00046797
 ,0.00086990,-0.00032205,-0.00020530,0.00005281,-0.00017737,-0.00615256
 ,0.00490269,-0.01414520,-0.00227858,0.00923898,-0.01802748,-0.01568583
 ,0.00410148,0.37944782,0.00070782,-0.00037610,-0.00037232,0.00026202,0
 .00000996,0.00006160,-0.00043222,0.00023289,-0.00014442,-0.00035133,0.
 00006378,0.00051725,-0.00017821,-0.00000154,-0.00001216,-0.00011741,-0
 .00120418,-0.00274184,0.00279776,-0.00121063,-0.00069421,0.00055025,0.
 00074674,-0.00042044,-0.00095525,-0.00019065,0.00014533,0.00055362,-0.
 00010677,-0.00003054,-0.00016480,-0.00003050,-0.00005697,0.00041215,0.
 00043336,0.00041445,-0.00443147,-0.00884517,0.00352276,-0.00000389,0.0
 0005793,-0.00005193,0.00000767,-0.00015490,0.00011870,-0.00446632,0.00
 015886,-0.00030334,-0.00016916,0.00078352,-0.00086796,0.00920384,0.016
 19512,0.02263129,0.00060723,-0.01555418,-0.03267224,-0.00024256,0.0014
 5617,-0.00192875,0.00012833,-0.00004875,-0.00014753,-0.00002786,0.0000
 4307,-0.00001793,-0.00012450,0.00009625,0.00000649,0.00116901,-0.00052
 325,0.00056845,0.00018460,-0.00029839,0.00042139,0.00007274,0.00007204
 ,-0.00016354,-0.00022501,0.00027942,-0.00022553,0.00006931,-0.00005208
 ,-0.00010520,0.00003865,-0.00011524,0.00020008,-0.00010555,0.00006509,
 -0.00030533,-0.00003200,-0.00000004,-0.00000319,-0.00004083,-0.0000353
 3,0.00000392,-0.00076816,-0.00030963,0.00013370,0.00003685,0.00000878,
 -0.00007029,-0.00047640,0.00000385,0.00010719,0.00112892,0.00247248,-0
 .00042307,0.00123438,-0.00120861,-0.00082911,-0.00023294,-0.00206490,0
 .00002078,-0.00731607,0.01085604,-0.00172018,-0.00449740,-0.00570969,0
 .00051996,-0.00393892,-0.06463224,0.03518205,0.04001588,0.19080086,-0.
 00100004,-0.00001139,-0.00003022,-0.00047268,0.00015445,-0.00005415,-0
 .00033738,0.00012395,0.00029144,0.00046382,-0.00019606,0.00005152,0.00
 022519,0.00003205,0.00009164,0.00136952,-0.00061965,-0.00050804,0.0010
 9962,-0.00326677,-0.00095211,0.00041682,0.00007211,-0.00026054,0.00198
 137,0.00097114,-0.00035072,-0.00035278,0.00003262,-0.00047243,0.000133
 15,-0.00015053,0.00019740,-0.00053736,-0.00068249,-0.00053807,-0.00145
 619,-0.00101588,0.00059020,0.00000547,-0.00001411,0.00006078,-0.000019
 29,0.00017841,-0.00013724,-0.00249380,-0.00115697,-0.00342531,0.000391
 83,0.00034672,0.00012886,-0.01903639,0.02015965,-0.00053833,-0.0074816
 0,-0.03470769,-0.17897344,-0.00138878,0.00085641,-0.00092252,-0.000231
 48,-0.00001371,0.00015603,0.00002566,-0.00003946,0.00001788,0.00016793
 ,-0.00008726,0.00000021,-0.00171389,0.00006999,-0.00090866,0.00023300,
 0.00015032,0.00007165,-0.00012164,-0.00007823,0.00028421,0.00011361,-0
 .00032634,0.00027316,-0.00001293,0.00006405,0.00015460,-0.00008697,0.0
 0014248,-0.00038162,0.00029519,-0.00010843,0.00053079,0.00003208,0.000
 00077,0.00000998,0.00003275,0.00014371,-0.00005202,0.00056435,-0.00019
 267,-0.00027775,-0.00003900,-0.00003590,0.00012495,-0.00026152,0.00000
 843,0.00015289,0.00037086,0.00032273,0.00002401,0.00050338,-0.00044463
 ,0.00001881,-0.00085259,0.00067638,-0.00018741,0.01285582,-0.00027912,
 0.00933417,-0.00430859,-0.00455759,-0.01204611,0.00867682,0.03627856,-
 0.02264529,0.03705427,0.00919756,0.26085008,0.00009513,-0.00033783,-0.
 00024062,-0.00000969,0.00007513,0.00006914,-0.00039831,0.00026358,-0.0
 0009438,-0.00070313,0.00020972,0.00011523,-0.00013086,0.00001499,-0.00
 004209,0.00163853,-0.00098674,-0.00195901,-0.01413774,-0.00192752,-0.0
 0552108,0.00078798,0.00057470,-0.00053041,0.00026723,0.00031259,0.0000
 9483,-0.00010457,-0.00016807,-0.00032345,-0.00008976,-0.00000830,0.000
 05085,0.00010803,0.00015207,0.00004273,-0.00785892,-0.00625011,0.00368
 130,-0.00000359,0.00003010,-0.00000688,-0.00007788,-0.00009522,-0.0000
 1657,-0.00123973,-0.00077762,0.00086917,0.00020798,0.00046636,-0.00033
 238,-0.02044491,-0.01178668,-0.01166496,0.00129535,0.00591160,0.006417
 34,-0.00040118,0.00477784,-0.00630745,0.00008182,-0.00011464,0.0000280
 4,-0.00005535,0.00011621,-0.00005292,-0.00007294,0.00001302,0.00001075
 ,-0.00005206,-0.00001844,-0.00009242,0.00026348,-0.00006198,-0.0000551
 2,0.00003633,-0.00003530,0.00007251,-0.00006037,0.00009508,-0.00006801
 ,0.00002004,0.00003765,0.00001244,-0.00001224,-0.00000791,-0.00002894,
 0.00007705,-0.00001926,-0.00006838,-0.00007074,-0.00000153,0.00008197,
 0.00000811,0.00005987,-0.00001560,-0.00023474,-0.00055731,-0.00025731,
 -0.00004285,0.00003020,0.00012902,-0.00053979,0.00006909,0.00011107,0.
 00090678,0.00180307,-0.00069361,0.00100453,0.00035713,-0.00106603,0.00
 047329,-0.00067803,0.00011497,-0.00294139,0.00487976,-0.00235955,0.002
 25351,0.00166840,-0.00465434,0.00667184,0.00700262,-0.00010902,-0.0379
 7825,0.03030216,0.00694317,0.07601441,0.00012104,-0.00053403,-0.000271
 48,0.00005196,0.00010385,0.00001959,-0.00030581,0.00025927,-0.00008981
 ,-0.00015547,0.00007166,0.00042398,-0.00008152,0.00003596,-0.00002117,
 0.00080427,0.00104560,-0.00107513,0.00257273,0.00319511,0.00299555,-0.
 00004610,-0.00040449,-0.00005158,-0.00007197,0.00022546,-0.00028051,0.
 00019533,-0.00037827,0.00016199,-0.00003943,-0.00010715,0.00013014,0.0
 0024007,0.00012005,0.00020906,-0.00328249,0.00059844,-0.00182969,0.000
 02113,0.00003041,-0.00001153,-0.00008687,-0.00010599,-0.00002109,-0.00
 033544,-0.00098560,0.00011948,-0.00013527,-0.00002852,0.00014827,-0.01
 954716,-0.03608265,-0.03242316,0.00213645,-0.00807508,-0.00870081,-0.0
 0160917,0.00112108,-0.00137902,0.00001216,-0.00008767,0.00001226,-0.00
 002748,0.00005994,-0.00002173,0.00002856,0.00000720,0.00001239,0.00005
 194,0.00022747,-0.00000620,-0.00012391,0.00004556,-0.00032171,-0.00002
 273,-0.00000293,-0.00000974,-0.00009440,0.00002321,-0.00004179,-0.0000
 3182,0.00005420,0.00005023,0.00001707,-0.00000217,0.00001377,-0.000001
 14,0.00003518,-0.00007927,-0.00002182,0.00000656,0.00001688,0.00001018
 ,0.00002101,-0.00002417,0.00002727,-0.00027713,-0.00007643,0.00001202,
 0.00004831,0.00002000,-0.00012740,0.00004188,-0.00004153,0.00041318,-0
 .00003136,-0.00039789,-0.00015343,0.00059418,0.00014226,0.00011906,0.0
 0125883,-0.00008987,0.00248232,-0.00196563,-0.00184216,0.00372204,-0.0
 0597153,0.01029195,-0.00277460,-0.00180414,-0.00028533,0.04907000,-0.0
 8920640,-0.01408610,-0.03786495,0.13115332,0.00049048,0.00004678,0.000
 16401,-0.00014555,-0.00008292,0.00006700,-0.00001198,-0.00026571,-0.00
 017459,-0.00009775,0.00036618,0.00002774,0.00000883,0.00000953,-0.0000
 2658,0.00013060,0.00145926,-0.00115022,-0.00515201,0.00161024,0.000051
 75,-0.00004373,-0.00009866,0.00022406,0.00014059,-0.00026011,-0.000116
 89,-0.00033441,0.00033147,-0.00012135,0.00008987,0.00016295,-0.0000334
 0,-0.00016954,-0.00006793,-0.00009729,0.00216657,-0.00098802,0.0023705
 9,-0.00001512,-0.00004999,0.00003691,-0.00001989,-0.00000529,-0.000002
 44,-0.00012766,-0.00307705,0.00268190,0.00022058,-0.00018916,-0.000099
 83,-0.02931179,-0.02859999,-0.03761761,0.00784524,-0.00704178,0.001312
 87,-0.00019899,0.00193764,-0.00460864,0.00011833,0.00004644,0.00006223
 ,-0.00001798,0.00004792,-0.00001805,-0.00000702,-0.00003082,-0.0000102
 0,0.00007947,0.00026019,0.00002486,-0.00001490,-0.00007662,0.00004743,
 0.00006527,-0.00005287,-0.00000270,-0.00000170,-0.00000956,-0.00009243
 ,0.00003966,0.00002791,-0.00001141,0.00002191,-0.00002021,0.00005415,-
 0.00001005,-0.00000613,-0.00013412,-0.00002079,-0.00000798,0.00003538,
 -0.00002171,-0.00007512,0.00002068,0.00000493,0.00008646,0.00000931,-0
 .00003373,-0.00002385,0.00002658,0.00009682,-0.00000606,-0.00000871,-0
 .00044758,0.00030211,-0.00033643,0.00069430,0.00024397,0.00009551,0.00
 000188,-0.00018162,0.00001194,-0.00246800,-0.00345471,-0.00112921,-0.0
 0296257,0.00945338,-0.00357156,-0.00238491,0.00122931,0.00235212,0.013
 42525,-0.01949556,-0.02493526,0.01865283,0.04565309,0.06398156,0.00001
 851,-0.00034984,-0.00027913,0.00026970,0.00004535,-0.00002944,0.000022
 76,0.00027869,-0.00024492,-0.00008591,-0.00002894,0.00015150,-0.000093
 07,0.00004176,0.00000810,0.00042517,-0.00158770,0.00052307,0.00129652,
 -0.00014596,-0.00001594,0.00022092,0.00032176,-0.00017119,-0.00088999,
 -0.00006590,0.00025693,-0.00008026,-0.00022786,-0.00002815,-0.00016619
 ,-0.00006357,-0.00002169,0.00045547,0.00043613,0.00020963,-0.00106580,
 -0.00073277,0.00128936,-0.00000781,0.00009111,-0.00013376,-0.00012011,
 -0.00009509,-0.00000767,0.00045952,0.00055724,0.00045642,0.00000332,0.
 00011913,-0.00020992,-0.00508564,0.00211410,-0.00322170,0.00149906,-0.
 00117195,-0.01283999,0.00107606,0.00000659,0.00030163,0.00014484,-0.00
 052118,0.00014208,-0.00015846,0.00037374,-0.00017773,-0.00007679,0.000
 07135,-0.00007532,-0.00027079,-0.00008880,-0.00003440,0.00013692,0.000
 01988,-0.00003984,0.00014519,0.00002653,-0.00000451,0.00012276,0.00009
 244,0.00018703,0.00000493,0.00001834,-0.00000334,-0.00003413,-0.000049
 36,-0.00001909,0.00019620,0.00002850,-0.00020717,-0.00018890,-0.000024
 47,0.00024031,0.00000866,0.00003995,-0.00001300,0.00006380,-0.00016494
 ,-0.00041078,-0.00018995,-0.00001173,0.00030721,-0.00010800,-0.0000012
 4,0.00009881,0.00042511,0.00062771,-0.00022110,0.00039027,-0.00016325,
 -0.00024787,0.00001433,-0.00023404,-0.00006377,-0.00229864,0.00015133,
 0.00063570,-0.00066506,-0.00010383,0.00047508,0.00068087,-0.00449318,0
 .00213540,-0.26446341,-0.06018492,-0.03175082,-0.00455043,0.00483164,-
 0.00027405,0.27251843,-0.00007270,-0.00004601,-0.00006849,0.00008221,0
 .00000434,-0.00000783,-0.00004305,0.00006291,-0.00001188,-0.00003702,-
 0.00001047,0.00001482,-0.00001837,0.00000247,0.00000161,0.00073577,-0.
 00044954,0.00033560,-0.00004423,-0.00000999,0.00035567,0.00010379,0.00
 010940,-0.00005279,-0.00018604,-0.00000438,0.00009664,-0.00006108,-0.0
 0012799,0.00007209,-0.00006155,-0.00001932,-0.00001609,0.00014148,0.00
 014146,0.00005115,-0.00024793,0.00003247,0.00052981,-0.00000431,0.0000
 2964,-0.00004302,-0.00003105,-0.00002121,-0.00000009,0.00038194,-0.000
 11459,-0.00004073,0.00002145,-0.00001456,-0.00007136,-0.00104376,0.001
 02992,-0.00269244,-0.00314978,-0.00006584,-0.00093852,0.00011543,0.000
 00773,-0.00004627,0.00002815,-0.00015068,0.00003564,-0.00004310,0.0001
 0104,-0.00004818,-0.00002587,0.00002328,-0.00002477,-0.00007728,-0.000
 02891,-0.00002598,0.00005265,0.00000841,-0.00002352,0.00003887,0.00001
 219,-0.00000035,0.00005581,0.00001736,0.00007314,-0.00000430,0.0000004
 2,0.00000636,-0.00001344,-0.00001430,-0.00000703,0.00004869,0.00001122
 ,-0.00004623,-0.00005081,-0.00000933,0.00006658,0.00000259,0.00001307,
 0.00000097,-0.00000747,-0.00001298,-0.00011906,-0.00005673,-0.00000485
 ,0.00008551,0.00001487,-0.00001463,0.00002869,0.00008229,0.00026898,-0
 .00004467,0.00005930,-0.00004367,-0.00015276,0.00003442,-0.00012192,-0
 .00003211,-0.00118264,-0.00052213,0.00045958,0.00055095,-0.00014251,0.
 00039738,-0.00491380,0.00117643,-0.00169508,-0.05386616,-0.03295702,-0
 .00791152,0.00247452,0.00566704,0.00089288,0.06021728,0.02618705,0.000
 07102,-0.00006191,-0.00004258,0.00004062,-0.00000140,-0.00000207,0.000
 01709,0.00005888,-0.00009282,-0.00004529,0.00001395,0.00001970,-0.0000
 2308,0.00001163,-0.00000414,-0.00016692,-0.00001276,0.00022163,0.00006
 442,0.00013710,-0.00005342,-0.00004833,-0.00001234,0.00003152,-0.00014
 972,-0.00005186,0.00003543,0.00000824,0.00002058,0.00001015,-0.0000042
 7,0.00001106,0.00000290,0.00006251,0.00007256,0.00002850,-0.00029146,-
 0.00009487,-0.00029064,-0.00000202,0.00000585,-0.00001643,-0.00002729,
 -0.00002252,-0.00000850,0.00018035,0.00005867,0.00062625,-0.00001343,-
 0.00000075,0.00005982,0.00178666,-0.00119624,0.00181839,-0.01111330,-0
 .00179131,-0.00174763,0.00005731,-0.00002962,-0.00047403,0.00003915,-0
 .00007790,0.00003206,-0.00002827,0.00006646,-0.00003077,-0.00001657,0.
 00000719,-0.00001214,-0.00002280,0.00002902,-0.00001122,-0.00001626,0.
 00001268,-0.00001976,0.00002874,-0.00000876,0.00000059,0.00001677,0.00
 000502,0.00000528,0.00000318,0.00002356,0.00002219,0.00000032,-0.00000
 520,0.00000259,0.00003086,0.00000792,-0.00006042,-0.00003038,-0.000003
 31,0.00004017,-0.00000166,-0.00000455,-0.00000871,0.00006681,-0.000016
 80,-0.00005733,-0.00003342,-0.00000236,0.00005394,-0.00000314,-0.00000
 681,-0.00000946,-0.00007300,-0.00007963,-0.00006746,0.00021484,0.00002
 901,0.00003006,0.00015985,0.00010440,-0.00002471,-0.00169315,0.0000135
 5,-0.00006296,0.00155440,0.00099074,0.00023098,0.00232184,-0.00190417,
 0.00112568,-0.03531240,-0.00996939,-0.02481802,-0.00093683,0.00305800,
 0.00064035,0.04332801,0.01061665,0.02287704\\-0.00002032,0.00000466,-0
 .00000594,0.00000948,0.00000022,0.00000219,0.00000388,0.00000042,0.000
 00870,-0.00000427,-0.00000022,0.00000118,0.00000712,0.00000390,-0.0000
 0393,0.00001294,0.00000257,-0.00005897,0.00000244,-0.00000191,-0.00000
 056,0.00000543,-0.00000331,-0.00000026,-0.00000553,-0.00002155,0.00004
 786,-0.00000505,-0.00001471,0.00000769,0.00001011,0.00000004,-0.000001
 51,-0.00000119,0.00001569,-0.00000903,0.00001184,0.00001001,0.00000555
 ,-0.00000016,-0.00000285,0.00000102,-0.00000058,-0.00000708,0.00000751
 ,0.00001971,0.00000651,0.00000206,0.00000265,0.00000238,0.00000622,-0.
 00001499,0.00000511,0.00000408,0.00001056,-0.00000539,0.00000442,-0.00
 000068,0.00001140,0.00000545,-0.00000873,-0.00000172,0.00000180,0.0000
 0246,0.00000114,-0.00000039,0.00000468,-0.00000876,0.00000168,-0.00001
 451,0.00000773,0.00000267,0.00000100,-0.00000187,-0.00000119,0.0000095
 4,-0.00000273,0.00000503,0.00000237,0.00002934,-0.00001703,-0.00000716
 ,-0.00000337,-0.00000657,0.00000630,-0.00001223,-0.00000043,-0.0000033
 0,-0.00000034,0.00000334,-0.00000115,0.00000025,0.00000030,-0.00000987
 ,0.00000023,0.00000361,0.00002138,-0.00001373,-0.00001638,-0.00000390,
 0.00000731,-0.00000201,0.00000269,-0.00000225,0.00000608,-0.00002517,0
 .00001905,0.00002573,0.00000726,-0.00001093,-0.00000536,0.00001260,-0.
 00000191,0.00000308,-0.00003822,-0.00000245,-0.00002492,0.00000746,-0.
 00001523,-0.00000698,-0.00001890,0.00000984,0.00001532,0.00002004,-0.0
 0000694,0.00000557,-0.00000934,-0.00000271,-0.00000403,-0.00000093,0.0
 0000640,-0.00001263\\\@
 The archive entry for this job was punched.


 SIGN SEEN IN A RESTAURANT-
 WE RESERVE THE RIGHT TO SERVE REFUSE TO ANYONE.
 Job cpu time:       1 days 15 hours 23 minutes 35.3 seconds.
 Elapsed time:       0 days  0 hours 49 minutes 22.7 seconds.
 File lengths (MBytes):  RWF=   4919 Int=      0 D2E=      0 Chk=     68 Scr=      2
 Normal termination of Gaussian 16 at Sat Dec 24 16:15:59 2022.
