 Entering Gaussian System, Link 0=/apps/GAU16/avx2/g16/g16
 Initial command:
 /apps/GAU16/avx2//g16/l1.exe "/localscratch/chesayan/sagar/Gau-133422.inp" -scrdir="/localscratch/chesayan/sagar/"
 Entering Link 1 = /apps/GAU16/avx2//g16/l1.exe PID=    133423.
  
 Copyright (c) 1988-2019, Gaussian, Inc.  All Rights Reserved.
  
 This is part of the Gaussian(R) 16 program.  It is based on
 the Gaussian(R) 09 system (copyright 2009, Gaussian, Inc.),
 the Gaussian(R) 03 system (copyright 2003, Gaussian, Inc.),
 the Gaussian(R) 98 system (copyright 1998, Gaussian, Inc.),
 the Gaussian(R) 94 system (copyright 1995, Gaussian, Inc.),
 the Gaussian 92(TM) system (copyright 1992, Gaussian, Inc.),
 the Gaussian 90(TM) system (copyright 1990, Gaussian, Inc.),
 the Gaussian 88(TM) system (copyright 1988, Gaussian, Inc.),
 the Gaussian 86(TM) system (copyright 1986, Carnegie Mellon
 University), and the Gaussian 82(TM) system (copyright 1983,
 Carnegie Mellon University). Gaussian is a federally registered
 trademark of Gaussian, Inc.
  
 This software contains proprietary and confidential information,
 including trade secrets, belonging to Gaussian, Inc.
  
 This software is provided under written license and may be
 used, copied, transmitted, or stored only in accord with that
 written license.
  
 The following legend is applicable only to US Government
 contracts under FAR:
  
                    RESTRICTED RIGHTS LEGEND
  
 Use, reproduction and disclosure by the US Government is
 subject to restrictions as set forth in subparagraphs (a)
 and (c) of the Commercial Computer Software - Restricted
 Rights clause in FAR 52.227-19.
  
 Gaussian, Inc.
 340 Quinnipiac St., Bldg. 40, Wallingford CT 06492
  
  
 ---------------------------------------------------------------
 Warning -- This program may not be used in any manner that
 competes with the business of Gaussian, Inc. or will provide
 assistance to any competitor of Gaussian, Inc.  The licensee
 of this program is prohibited from giving any competitor of
 Gaussian, Inc. access to this program.  By using this program,
 the user acknowledges that Gaussian, Inc. is engaged in the
 business of creating and licensing software in the field of
 computational chemistry and represents and warrants to the
 licensee that it is not a competitor of Gaussian, Inc. and that
 it will not use this program in any manner prohibited above.
 ---------------------------------------------------------------
  

 Cite this work as:
 Gaussian 16, Revision C.01,
 M. J. Frisch, G. W. Trucks, H. B. Schlegel, G. E. Scuseria, 
 M. A. Robb, J. R. Cheeseman, G. Scalmani, V. Barone, 
 G. A. Petersson, H. Nakatsuji, X. Li, M. Caricato, A. V. Marenich, 
 J. Bloino, B. G. Janesko, R. Gomperts, B. Mennucci, H. P. Hratchian, 
 J. V. Ortiz, A. F. Izmaylov, J. L. Sonnenberg, D. Williams-Young, 
 F. Ding, F. Lipparini, F. Egidi, J. Goings, B. Peng, A. Petrone, 
 T. Henderson, D. Ranasinghe, V. G. Zakrzewski, J. Gao, N. Rega, 
 G. Zheng, W. Liang, M. Hada, M. Ehara, K. Toyota, R. Fukuda, 
 J. Hasegawa, M. Ishida, T. Nakajima, Y. Honda, O. Kitao, H. Nakai, 
 T. Vreven, K. Throssell, J. A. Montgomery, Jr., J. E. Peralta, 
 F. Ogliaro, M. J. Bearpark, J. J. Heyd, E. N. Brothers, K. N. Kudin, 
 V. N. Staroverov, T. A. Keith, R. Kobayashi, J. Normand, 
 K. Raghavachari, A. P. Rendell, J. C. Burant, S. S. Iyengar, 
 J. Tomasi, M. Cossi, J. M. Millam, M. Klene, C. Adamo, R. Cammi, 
 J. W. Ochterski, R. L. Martin, K. Morokuma, O. Farkas, 
 J. B. Foresman, and D. J. Fox, Gaussian, Inc., Wallingford CT, 2019.
 
 ******************************************
 Gaussian 16:  ES64L-G16RevC.01  3-Jul-2019
                24-Dec-2022 
 ******************************************
 %nprocshared=48
 Will use up to   48 processors via shared memory.
 %mem=100GB
 ---------------------------------------------------------
 # opt freq b3lyp/gen nosymm pseudo=read scf=maxcycles=500
 ---------------------------------------------------------
 1/18=20,19=15,26=3,38=1/1,3;
 2/9=110,12=2,15=1,17=6,18=5,40=1/2;
 3/5=7,11=2,16=1,17=8,25=1,30=1,71=1,74=-5/1,2,3;
 4//1;
 5/5=2,7=500,38=5/2;
 6/7=2,8=2,9=2,10=2,28=1/1;
 7/30=1/1,2,3,16;
 1/18=20,19=15,26=3/3(2);
 2/9=110,15=1/2;
 99//99;
 2/9=110,15=1/2;
 3/5=7,6=1,11=2,16=1,17=8,25=1,30=1,71=1,74=-5,82=7/1,2,3;
 4/5=5,16=3,69=1/1;
 5/5=2,7=500,38=5/2;
 7/30=1/1,2,3,16;
 1/18=20,19=15,26=3/3(-5);
 2/9=110,15=1/2;
 6/7=2,8=2,9=2,10=2,19=2,28=1/1;
 99/9=1/99;
 -------------------
 Title Card Required
 -------------------
 Symbolic Z-matrix:
 Charge =  0 Multiplicity = 1
 Mo                    0.57767   1.46491   12.40442 
 S                     1.60101   3.59207   12.60793 
 S                    -1.58367   1.90103   13.2246 
 S                    -0.35513   0.94958   10.28343 
 S                     2.35616  -0.15788   11.79758 
 Mo                   -2.02544   2.61063   10.92664 
 S                    -2.68985   2.14508   8.695 
 S                    -1.01177   4.61583   10.76858 
 Mo                    0.94974   3.05516   10.30104 
 S                     0.19668   3.32042   7.92347 
 S                     2.7745    1.79391   9.31813 
 Mo                    3.28241   2.26917   11.63587 
 Mo                   -1.99215   4.45158   8.41829 
 S                     4.50259   1.94973   13.82592 
 S                     4.95649   3.87359   11.31766 
 S                    -3.72967   5.95892   9.29368 
 S                    -0.52805   6.54113   8.27236 
 Mo                   -4.34453   3.65698   9.56444 
 S                    -6.69596   4.84611   10.15903 
 S                    -4.20108   3.15943   11.78839 
 Mo                    3.01417   0.28892   13.96519 
 S                     3.79412  -1.40549   14.97508 
 S                     1.14041   1.01281   14.90295 
 Mo                    1.50423   5.38475   7.28149 
 S                     0.58989   4.98319   5.07238 
 S                     1.94477   5.40981   9.8942 
 Mo                    3.61262   4.02563   9.4154 
 S                     3.36105   3.80434   6.93148 
 S                     5.3477    5.90695   8.93179 
 Mo                    4.30525   5.94141   6.98468 
 S                     5.47983   7.59733   6.38937 
 S                     2.60329   7.62614   7.13454 
 Mo                    1.48141   7.1494    5.06365 
 S                     2.69477   8.59971   4.10847 
 S                    -0.35022   8.38855   5.1158 
 Mo                   -1.26378   6.22059   6.17572 
 S                    -2.40959   4.11798   6.04048 
 S                    -3.20935   7.67912   6.19104 
 Mo                   -3.94907   5.71588   6.93429 
 S                    -5.93304   5.03465   5.60081 
 S                    -6.40995   6.54275   6.99577 
 Mo                   -6.9688    4.39503   8.03686 
 S                    -5.63055   2.50596   7.899 
 S                    -8.99308   3.92986   7.68694 
 Mo                    4.80456   7.74237   3.78639 
 C                     4.36546   7.40738   1.8018 
 C                     5.49742   9.62432   3.31542 
 C                     6.6942    6.97448   3.49791 
 O                     4.12771   7.226     0.72724 
 O                     5.87257   10.64331   3.06041 
 O                     7.71736   6.55871   3.34171 
 

 GradGradGradGradGradGradGradGradGradGradGradGradGradGradGradGradGradGrad
 Berny optimization.
 Initialization pass.
                           ----------------------------
                           !    Initial Parameters    !
                           ! (Angstroms and Degrees)  !
 --------------------------                            --------------------------
 ! Name  Definition              Value          Derivative Info.                !
 --------------------------------------------------------------------------------
 ! R1    R(1,2)                  2.3693         estimate D2E/DX2                !
 ! R2    R(1,3)                  2.3525         estimate D2E/DX2                !
 ! R3    R(1,4)                  2.3737         estimate D2E/DX2                !
 ! R4    R(1,5)                  2.4829         estimate D2E/DX2                !
 ! R5    R(1,9)                  2.663          estimate D2E/DX2                !
 ! R6    R(1,12)                 2.9246         estimate D2E/DX2                !
 ! R7    R(1,23)                 2.6007         estimate D2E/DX2                !
 ! R8    R(2,9)                  2.4565         estimate D2E/DX2                !
 ! R9    R(2,12)                 2.3499         estimate D2E/DX2                !
 ! R10   R(3,6)                  2.4453         estimate D2E/DX2                !
 ! R11   R(4,6)                  2.4419         estimate D2E/DX2                !
 ! R12   R(4,9)                  2.4772         estimate D2E/DX2                !
 ! R13   R(5,12)                 2.6028         estimate D2E/DX2                !
 ! R14   R(5,21)                 2.3089         estimate D2E/DX2                !
 ! R15   R(6,7)                  2.3745         estimate D2E/DX2                !
 ! R16   R(6,8)                  2.2524         estimate D2E/DX2                !
 ! R17   R(6,9)                  3.0726         estimate D2E/DX2                !
 ! R18   R(6,13)                 3.1116         estimate D2E/DX2                !
 ! R19   R(6,18)                 2.8859         estimate D2E/DX2                !
 ! R20   R(6,20)                 2.4036         estimate D2E/DX2                !
 ! R21   R(7,13)                 2.4255         estimate D2E/DX2                !
 ! R22   R(7,18)                 2.4041         estimate D2E/DX2                !
 ! R23   R(8,9)                  2.5499         estimate D2E/DX2                !
 ! R24   R(8,13)                 2.5519         estimate D2E/DX2                !
 ! R25   R(9,10)                 2.508          estimate D2E/DX2                !
 ! R26   R(9,11)                 2.4262         estimate D2E/DX2                !
 ! R27   R(9,12)                 2.8002         estimate D2E/DX2                !
 ! R28   R(9,26)                 2.5884         estimate D2E/DX2                !
 ! R29   R(9,27)                 2.9694         estimate D2E/DX2                !
 ! R30   R(10,13)                2.513          estimate D2E/DX2                !
 ! R31   R(10,24)                2.5265         estimate D2E/DX2                !
 ! R32   R(11,12)                2.4199         estimate D2E/DX2                !
 ! R33   R(11,27)                2.3859         estimate D2E/DX2                !
 ! R34   R(12,14)                2.5273         estimate D2E/DX2                !
 ! R35   R(12,15)                2.3405         estimate D2E/DX2                !
 ! R36   R(12,21)                3.0691         estimate D2E/DX2                !
 ! R37   R(12,27)                2.8504         estimate D2E/DX2                !
 ! R38   R(13,16)                2.4612         estimate D2E/DX2                !
 ! R39   R(13,17)                2.5556         estimate D2E/DX2                !
 ! R40   R(13,18)                2.7347         estimate D2E/DX2                !
 ! R41   R(13,36)                2.9477         estimate D2E/DX2                !
 ! R42   R(13,37)                2.4371         estimate D2E/DX2                !
 ! R43   R(13,39)                2.7623         estimate D2E/DX2                !
 ! R44   R(14,21)                2.2345         estimate D2E/DX2                !
 ! R45   R(15,27)                2.334          estimate D2E/DX2                !
 ! R46   R(16,18)                2.398          estimate D2E/DX2                !
 ! R47   R(16,39)                2.382          estimate D2E/DX2                !
 ! R48   R(17,24)                2.5395         estimate D2E/DX2                !
 ! R49   R(17,36)                2.245          estimate D2E/DX2                !
 ! R50   R(18,19)                2.7013         estimate D2E/DX2                !
 ! R51   R(18,20)                2.2834         estimate D2E/DX2                !
 ! R52   R(18,43)                2.3984         estimate D2E/DX2                !
 ! R53   R(19,42)                2.1867         estimate D2E/DX2                !
 ! R54   R(21,22)                2.1211         estimate D2E/DX2                !
 ! R55   R(21,23)                2.2168         estimate D2E/DX2                !
 ! R56   R(24,25)                2.4243         estimate D2E/DX2                !
 ! R57   R(24,26)                2.6497         estimate D2E/DX2                !
 ! R58   R(24,28)                2.4633         estimate D2E/DX2                !
 ! R59   R(24,30)                2.8712         estimate D2E/DX2                !
 ! R60   R(24,32)                2.5007         estimate D2E/DX2                !
 ! R61   R(24,33)                2.8343         estimate D2E/DX2                !
 ! R62   R(24,36)                3.0957         estimate D2E/DX2                !
 ! R63   R(25,33)                2.3425         estimate D2E/DX2                !
 ! R64   R(25,36)                2.4869         estimate D2E/DX2                !
 ! R65   R(26,27)                2.2197         estimate D2E/DX2                !
 ! R66   R(27,28)                2.5064         estimate D2E/DX2                !
 ! R67   R(27,29)                2.6046         estimate D2E/DX2                !
 ! R68   R(28,30)                2.337          estimate D2E/DX2                !
 ! R69   R(29,30)                2.2089         estimate D2E/DX2                !
 ! R70   R(30,31)                2.1157         estimate D2E/DX2                !
 ! R71   R(30,32)                2.3995         estimate D2E/DX2                !
 ! R72   R(31,45)                2.6931         estimate D2E/DX2                !
 ! R73   R(32,33)                2.403          estimate D2E/DX2                !
 ! R74   R(33,34)                2.1185         estimate D2E/DX2                !
 ! R75   R(33,35)                2.212          estimate D2E/DX2                !
 ! R76   R(33,36)                3.1041         estimate D2E/DX2                !
 ! R77   R(34,45)                2.3            estimate D2E/DX2                !
 ! R78   R(35,36)                2.5803         estimate D2E/DX2                !
 ! R79   R(36,37)                2.3984         estimate D2E/DX2                !
 ! R80   R(36,38)                2.4316         estimate D2E/DX2                !
 ! R81   R(36,39)                2.8357         estimate D2E/DX2                !
 ! R82   R(37,39)                2.3921         estimate D2E/DX2                !
 ! R83   R(38,39)                2.2257         estimate D2E/DX2                !
 ! R84   R(39,40)                2.4856         estimate D2E/DX2                !
 ! R85   R(39,41)                2.5968         estimate D2E/DX2                !
 ! R86   R(40,41)                2.109          estimate D2E/DX2                !
 ! R87   R(40,42)                2.7233         estimate D2E/DX2                !
 ! R88   R(41,42)                2.4513         estimate D2E/DX2                !
 ! R89   R(42,43)                2.3192         estimate D2E/DX2                !
 ! R90   R(42,44)                2.1063         estimate D2E/DX2                !
 ! R91   R(45,46)                2.06           estimate D2E/DX2                !
 ! R92   R(45,47)                2.06           estimate D2E/DX2                !
 ! R93   R(45,48)                2.06           estimate D2E/DX2                !
 ! R94   R(46,49)                1.1154         estimate D2E/DX2                !
 ! R95   R(47,50)                1.1154         estimate D2E/DX2                !
 ! R96   R(48,51)                1.1154         estimate D2E/DX2                !
 ! A1    A(2,1,3)              101.5623         estimate D2E/DX2                !
 ! A2    A(2,1,4)              116.1937         estimate D2E/DX2                !
 ! A3    A(2,1,5)              107.362          estimate D2E/DX2                !
 ! A4    A(2,1,23)              88.8591         estimate D2E/DX2                !
 ! A5    A(3,1,4)               89.4691         estimate D2E/DX2                !
 ! A6    A(3,1,5)              149.8223         estimate D2E/DX2                !
 ! A7    A(3,1,9)              107.0396         estimate D2E/DX2                !
 ! A8    A(3,1,12)             152.9132         estimate D2E/DX2                !
 ! A9    A(3,1,23)              84.035          estimate D2E/DX2                !
 ! A10   A(4,1,5)               85.4805         estimate D2E/DX2                !
 ! A11   A(4,1,12)             100.855          estimate D2E/DX2                !
 ! A12   A(4,1,23)             154.9224         estimate D2E/DX2                !
 ! A13   A(5,1,9)               95.5765         estimate D2E/DX2                !
 ! A14   A(5,1,23)              88.0629         estimate D2E/DX2                !
 ! A15   A(9,1,23)             146.3458         estimate D2E/DX2                !
 ! A16   A(12,1,23)             95.7482         estimate D2E/DX2                !
 ! A17   A(1,3,6)               83.8081         estimate D2E/DX2                !
 ! A18   A(1,4,6)               83.44           estimate D2E/DX2                !
 ! A19   A(1,5,21)              81.2693         estimate D2E/DX2                !
 ! A20   A(3,6,4)               85.7885         estimate D2E/DX2                !
 ! A21   A(3,6,7)              151.2664         estimate D2E/DX2                !
 ! A22   A(3,6,8)              104.063          estimate D2E/DX2                !
 ! A23   A(3,6,9)               93.3476         estimate D2E/DX2                !
 ! A24   A(3,6,13)             158.0219         estimate D2E/DX2                !
 ! A25   A(3,6,18)             133.9453         estimate D2E/DX2                !
 ! A26   A(3,6,20)              83.8493         estimate D2E/DX2                !
 ! A27   A(4,6,7)               79.0748         estimate D2E/DX2                !
 ! A28   A(4,6,8)              106.2159         estimate D2E/DX2                !
 ! A29   A(4,6,13)             100.5328         estimate D2E/DX2                !
 ! A30   A(4,6,18)             132.2196         estimate D2E/DX2                !
 ! A31   A(4,6,20)             150.3325         estimate D2E/DX2                !
 ! A32   A(7,6,8)              103.5628         estimate D2E/DX2                !
 ! A33   A(7,6,9)               96.1969         estimate D2E/DX2                !
 ! A34   A(7,6,20)              97.3799         estimate D2E/DX2                !
 ! A35   A(8,6,18)              90.3291         estimate D2E/DX2                !
 ! A36   A(8,6,20)             103.253          estimate D2E/DX2                !
 ! A37   A(9,6,13)              74.9245         estimate D2E/DX2                !
 ! A38   A(9,6,18)             129.0171         estimate D2E/DX2                !
 ! A39   A(9,6,20)             156.4113         estimate D2E/DX2                !
 ! A40   A(13,6,20)             99.4169         estimate D2E/DX2                !
 ! A41   A(9,8,13)              95.0064         estimate D2E/DX2                !
 ! A42   A(1,9,6)               67.5109         estimate D2E/DX2                !
 ! A43   A(1,9,8)               96.4995         estimate D2E/DX2                !
 ! A44   A(1,9,10)             140.3514         estimate D2E/DX2                !
 ! A45   A(1,9,11)              96.5826         estimate D2E/DX2                !
 ! A46   A(1,9,26)             136.1443         estimate D2E/DX2                !
 ! A47   A(1,9,27)             123.7829         estimate D2E/DX2                !
 ! A48   A(2,9,4)              109.3969         estimate D2E/DX2                !
 ! A49   A(2,9,6)               95.574          estimate D2E/DX2                !
 ! A50   A(2,9,8)               84.1445         estimate D2E/DX2                !
 ! A51   A(2,9,10)             161.2176         estimate D2E/DX2                !
 ! A52   A(2,9,11)             107.1378         estimate D2E/DX2                !
 ! A53   A(2,9,26)              81.191          estimate D2E/DX2                !
 ! A54   A(2,9,27)              88.3325         estimate D2E/DX2                !
 ! A55   A(4,9,8)               96.6809         estimate D2E/DX2                !
 ! A56   A(4,9,10)              85.6989         estimate D2E/DX2                !
 ! A57   A(4,9,11)              87.2161         estimate D2E/DX2                !
 ! A58   A(4,9,12)             101.748          estimate D2E/DX2                !
 ! A59   A(4,9,27)             138.423          estimate D2E/DX2                !
 ! A60   A(6,9,10)              85.2724         estimate D2E/DX2                !
 ! A61   A(6,9,11)             137.3524         estimate D2E/DX2                !
 ! A62   A(6,9,12)             131.9878         estimate D2E/DX2                !
 ! A63   A(6,9,26)             122.4011         estimate D2E/DX2                !
 ! A64   A(8,9,10)              82.9989         estimate D2E/DX2                !
 ! A65   A(8,9,12)             136.4878         estimate D2E/DX2                !
 ! A66   A(8,9,26)              76.5707         estimate D2E/DX2                !
 ! A67   A(8,9,27)             122.9913         estimate D2E/DX2                !
 ! A68   A(10,9,11)             84.0741         estimate D2E/DX2                !
 ! A69   A(10,9,12)            137.0301         estimate D2E/DX2                !
 ! A70   A(10,9,26)             82.5427         estimate D2E/DX2                !
 ! A71   A(10,9,27)             87.2463         estimate D2E/DX2                !
 ! A72   A(11,9,26)             96.8976         estimate D2E/DX2                !
 ! A73   A(12,9,26)             90.5749         estimate D2E/DX2                !
 ! A74   A(9,10,13)             97.0344         estimate D2E/DX2                !
 ! A75   A(9,10,24)             99.8983         estimate D2E/DX2                !
 ! A76   A(13,10,24)            97.6444         estimate D2E/DX2                !
 ! A77   A(1,12,11)             90.2049         estimate D2E/DX2                !
 ! A78   A(1,12,14)            100.6044         estimate D2E/DX2                !
 ! A79   A(1,12,15)            152.3427         estimate D2E/DX2                !
 ! A80   A(1,12,21)             62.7599         estimate D2E/DX2                !
 ! A81   A(1,12,27)            118.7715         estimate D2E/DX2                !
 ! A82   A(2,12,5)             104.159          estimate D2E/DX2                !
 ! A83   A(2,12,11)            110.8906         estimate D2E/DX2                !
 ! A84   A(2,12,14)             93.3333         estimate D2E/DX2                !
 ! A85   A(2,12,15)            100.4928         estimate D2E/DX2                !
 ! A86   A(2,12,21)             89.2405         estimate D2E/DX2                !
 ! A87   A(2,12,27)             93.3381         estimate D2E/DX2                !
 ! A88   A(5,12,9)              89.7082         estimate D2E/DX2                !
 ! A89   A(5,12,11)             78.5614         estimate D2E/DX2                !
 ! A90   A(5,12,14)             90.0064         estimate D2E/DX2                !
 ! A91   A(5,12,15)            154.4481         estimate D2E/DX2                !
 ! A92   A(5,12,27)            131.6237         estimate D2E/DX2                !
 ! A93   A(9,12,14)            148.2947         estimate D2E/DX2                !
 ! A94   A(9,12,15)            109.7929         estimate D2E/DX2                !
 ! A95   A(9,12,21)            118.0411         estimate D2E/DX2                !
 ! A96   A(11,12,14)           155.0263         estimate D2E/DX2                !
 ! A97   A(11,12,15)            98.8902         estimate D2E/DX2                !
 ! A98   A(11,12,21)           125.5825         estimate D2E/DX2                !
 ! A99   A(14,12,15)            81.9016         estimate D2E/DX2                !
 ! A100  A(14,12,27)           134.1877         estimate D2E/DX2                !
 ! A101  A(15,12,21)           127.4456         estimate D2E/DX2                !
 ! A102  A(6,13,10)             84.361          estimate D2E/DX2                !
 ! A103  A(6,13,16)             93.9034         estimate D2E/DX2                !
 ! A104  A(6,13,17)            122.4054         estimate D2E/DX2                !
 ! A105  A(6,13,37)            134.7245         estimate D2E/DX2                !
 ! A106  A(6,13,39)            134.1308         estimate D2E/DX2                !
 ! A107  A(7,13,8)              93.8213         estimate D2E/DX2                !
 ! A108  A(7,13,10)             81.0818         estimate D2E/DX2                !
 ! A109  A(7,13,16)            109.8005         estimate D2E/DX2                !
 ! A110  A(7,13,17)            161.5878         estimate D2E/DX2                !
 ! A111  A(7,13,36)            136.7641         estimate D2E/DX2                !
 ! A112  A(7,13,37)             86.0936         estimate D2E/DX2                !
 ! A113  A(7,13,39)            107.0223         estimate D2E/DX2                !
 ! A114  A(8,13,10)             82.8597         estimate D2E/DX2                !
 ! A115  A(8,13,16)             84.5036         estimate D2E/DX2                !
 ! A116  A(8,13,17)             77.2832         estimate D2E/DX2                !
 ! A117  A(8,13,18)             87.8891         estimate D2E/DX2                !
 ! A118  A(8,13,36)            124.5504         estimate D2E/DX2                !
 ! A119  A(8,13,39)            137.5199         estimate D2E/DX2                !
 ! A120  A(10,13,16)           163.8637         estimate D2E/DX2                !
 ! A121  A(10,13,17)            81.8245         estimate D2E/DX2                !
 ! A122  A(10,13,18)           134.5036         estimate D2E/DX2                !
 ! A123  A(10,13,36)            84.5548         estimate D2E/DX2                !
 ! A124  A(10,13,37)            83.9993         estimate D2E/DX2                !
 ! A125  A(10,13,39)           135.8303         estimate D2E/DX2                !
 ! A126  A(16,13,17)            85.6415         estimate D2E/DX2                !
 ! A127  A(16,13,36)            94.4443         estimate D2E/DX2                !
 ! A128  A(16,13,37)           108.0555         estimate D2E/DX2                !
 ! A129  A(17,13,18)           138.9648         estimate D2E/DX2                !
 ! A130  A(17,13,37)            98.878          estimate D2E/DX2                !
 ! A131  A(17,13,39)            90.0549         estimate D2E/DX2                !
 ! A132  A(18,13,36)           134.8921         estimate D2E/DX2                !
 ! A133  A(18,13,37)           102.8151         estimate D2E/DX2                !
 ! A134  A(18,13,39)            75.449          estimate D2E/DX2                !
 ! A135  A(18,16,39)            89.4428         estimate D2E/DX2                !
 ! A136  A(13,17,24)            96.2253         estimate D2E/DX2                !
 ! A137  A(6,18,16)            101.2622         estimate D2E/DX2                !
 ! A138  A(6,18,19)            139.0451         estimate D2E/DX2                !
 ! A139  A(6,18,43)            125.7778         estimate D2E/DX2                !
 ! A140  A(7,18,16)            112.7296         estimate D2E/DX2                !
 ! A141  A(7,18,19)            162.8596         estimate D2E/DX2                !
 ! A142  A(7,18,20)             99.9016         estimate D2E/DX2                !
 ! A143  A(7,18,43)             79.4042         estimate D2E/DX2                !
 ! A144  A(13,18,19)           135.4902         estimate D2E/DX2                !
 ! A145  A(13,18,20)           114.6745         estimate D2E/DX2                !
 ! A146  A(13,18,43)           108.0379         estimate D2E/DX2                !
 ! A147  A(16,18,19)            79.9485         estimate D2E/DX2                !
 ! A148  A(16,18,20)           107.6397         estimate D2E/DX2                !
 ! A149  A(16,18,43)           121.3166         estimate D2E/DX2                !
 ! A150  A(19,18,20)            86.3436         estimate D2E/DX2                !
 ! A151  A(19,18,43)            84.1084         estimate D2E/DX2                !
 ! A152  A(20,18,43)           127.259          estimate D2E/DX2                !
 ! A153  A(18,19,42)            78.7074         estimate D2E/DX2                !
 ! A154  A(5,21,14)            105.9708         estimate D2E/DX2                !
 ! A155  A(5,21,22)            113.4018         estimate D2E/DX2                !
 ! A156  A(5,21,23)            102.6757         estimate D2E/DX2                !
 ! A157  A(12,21,22)           147.6335         estimate D2E/DX2                !
 ! A158  A(12,21,23)           100.6166         estimate D2E/DX2                !
 ! A159  A(14,21,22)           112.2391         estimate D2E/DX2                !
 ! A160  A(14,21,23)           110.2843         estimate D2E/DX2                !
 ! A161  A(22,21,23)           111.7305         estimate D2E/DX2                !
 ! A162  A(1,23,21)             80.4017         estimate D2E/DX2                !
 ! A163  A(10,24,17)            81.8798         estimate D2E/DX2                !
 ! A164  A(10,24,25)            84.3193         estimate D2E/DX2                !
 ! A165  A(10,24,26)            80.9802         estimate D2E/DX2                !
 ! A166  A(10,24,28)            84.3761         estimate D2E/DX2                !
 ! A167  A(10,24,30)           133.5958         estimate D2E/DX2                !
 ! A168  A(10,24,33)           134.6978         estimate D2E/DX2                !
 ! A169  A(10,24,36)            81.293          estimate D2E/DX2                !
 ! A170  A(17,24,25)            97.42           estimate D2E/DX2                !
 ! A171  A(17,24,26)            75.1679         estimate D2E/DX2                !
 ! A172  A(17,24,28)           161.9537         estimate D2E/DX2                !
 ! A173  A(17,24,30)           137.1179         estimate D2E/DX2                !
 ! A174  A(17,24,32)            88.0805         estimate D2E/DX2                !
 ! A175  A(17,24,33)            90.8803         estimate D2E/DX2                !
 ! A176  A(25,24,26)           164.3161         estimate D2E/DX2                !
 ! A177  A(25,24,28)            92.7826         estimate D2E/DX2                !
 ! A178  A(25,24,30)           107.8092         estimate D2E/DX2                !
 ! A179  A(25,24,32)           105.11           estimate D2E/DX2                !
 ! A180  A(26,24,28)            91.1948         estimate D2E/DX2                !
 ! A181  A(26,24,30)            86.4399         estimate D2E/DX2                !
 ! A182  A(26,24,32)            88.6475         estimate D2E/DX2                !
 ! A183  A(26,24,33)           140.087          estimate D2E/DX2                !
 ! A184  A(26,24,36)           119.8886         estimate D2E/DX2                !
 ! A185  A(28,24,32)           103.6162         estimate D2E/DX2                !
 ! A186  A(28,24,33)           107.1176         estimate D2E/DX2                !
 ! A187  A(28,24,36)           142.7944         estimate D2E/DX2                !
 ! A188  A(30,24,33)            78.8286         estimate D2E/DX2                !
 ! A189  A(30,24,36)           141.5387         estimate D2E/DX2                !
 ! A190  A(32,24,36)            97.4687         estimate D2E/DX2                !
 ! A191  A(9,26,24)             94.7302         estimate D2E/DX2                !
 ! A192  A(24,26,27)            84.6254         estimate D2E/DX2                !
 ! A193  A(9,27,15)            104.5943         estimate D2E/DX2                !
 ! A194  A(9,27,28)            100.1783         estimate D2E/DX2                !
 ! A195  A(9,27,29)            152.7311         estimate D2E/DX2                !
 ! A196  A(11,27,15)           100.0529         estimate D2E/DX2                !
 ! A197  A(11,27,26)           109.1562         estimate D2E/DX2                !
 ! A198  A(11,27,28)            80.8946         estimate D2E/DX2                !
 ! A199  A(11,27,29)           154.4334         estimate D2E/DX2                !
 ! A200  A(12,27,26)            97.4229         estimate D2E/DX2                !
 ! A201  A(12,27,28)           134.9087         estimate D2E/DX2                !
 ! A202  A(12,27,29)           131.8303         estimate D2E/DX2                !
 ! A203  A(15,27,26)           107.3047         estimate D2E/DX2                !
 ! A204  A(15,27,28)           149.2868         estimate D2E/DX2                !
 ! A205  A(15,27,29)            79.3284         estimate D2E/DX2                !
 ! A206  A(26,27,28)           101.1519         estimate D2E/DX2                !
 ! A207  A(26,27,29)            95.1737         estimate D2E/DX2                !
 ! A208  A(28,27,29)            86.9404         estimate D2E/DX2                !
 ! A209  A(24,28,27)            83.0038         estimate D2E/DX2                !
 ! A210  A(27,28,30)            81.7292         estimate D2E/DX2                !
 ! A211  A(27,29,30)            81.9842         estimate D2E/DX2                !
 ! A212  A(24,30,29)           111.4846         estimate D2E/DX2                !
 ! A213  A(24,30,31)           136.257          estimate D2E/DX2                !
 ! A214  A(28,30,29)           101.331          estimate D2E/DX2                !
 ! A215  A(28,30,31)           159.01           estimate D2E/DX2                !
 ! A216  A(28,30,32)           110.9104         estimate D2E/DX2                !
 ! A217  A(29,30,31)            89.899          estimate D2E/DX2                !
 ! A218  A(29,30,32)           106.8966         estimate D2E/DX2                !
 ! A219  A(31,30,32)            82.0575         estimate D2E/DX2                !
 ! A220  A(30,31,45)           100.0737         estimate D2E/DX2                !
 ! A221  A(30,32,33)            97.9339         estimate D2E/DX2                !
 ! A222  A(24,33,34)           140.753          estimate D2E/DX2                !
 ! A223  A(24,33,35)           109.6938         estimate D2E/DX2                !
 ! A224  A(25,33,32)           110.9728         estimate D2E/DX2                !
 ! A225  A(25,33,34)           148.51           estimate D2E/DX2                !
 ! A226  A(25,33,35)           101.7011         estimate D2E/DX2                !
 ! A227  A(32,33,34)            89.1603         estimate D2E/DX2                !
 ! A228  A(32,33,35)           104.7809         estimate D2E/DX2                !
 ! A229  A(32,33,36)            99.4102         estimate D2E/DX2                !
 ! A230  A(34,33,35)            95.8189         estimate D2E/DX2                !
 ! A231  A(34,33,36)           150.7974         estimate D2E/DX2                !
 ! A232  A(33,34,45)           109.4712         estimate D2E/DX2                !
 ! A233  A(13,36,24)            77.711          estimate D2E/DX2                !
 ! A234  A(13,36,25)           102.8915         estimate D2E/DX2                !
 ! A235  A(13,36,33)           132.1176         estimate D2E/DX2                !
 ! A236  A(13,36,35)           154.7173         estimate D2E/DX2                !
 ! A237  A(13,36,38)            99.0601         estimate D2E/DX2                !
 ! A238  A(17,36,25)           103.952          estimate D2E/DX2                !
 ! A239  A(17,36,33)            90.1164         estimate D2E/DX2                !
 ! A240  A(17,36,35)            98.4899         estimate D2E/DX2                !
 ! A241  A(17,36,37)           109.5364         estimate D2E/DX2                !
 ! A242  A(17,36,38)            99.8281         estimate D2E/DX2                !
 ! A243  A(17,36,39)            94.9292         estimate D2E/DX2                !
 ! A244  A(24,36,35)            93.2679         estimate D2E/DX2                !
 ! A245  A(24,36,37)           102.1583         estimate D2E/DX2                !
 ! A246  A(24,36,38)           151.0597         estimate D2E/DX2                !
 ! A247  A(24,36,39)           134.6784         estimate D2E/DX2                !
 ! A248  A(25,36,35)            88.3902         estimate D2E/DX2                !
 ! A249  A(25,36,37)            83.9655         estimate D2E/DX2                !
 ! A250  A(25,36,38)           153.8484         estimate D2E/DX2                !
 ! A251  A(25,36,39)           137.3899         estimate D2E/DX2                !
 ! A252  A(33,36,37)           131.6538         estimate D2E/DX2                !
 ! A253  A(33,36,38)           122.0308         estimate D2E/DX2                !
 ! A254  A(35,36,37)           151.9533         estimate D2E/DX2                !
 ! A255  A(35,36,38)            77.4028         estimate D2E/DX2                !
 ! A256  A(35,36,39)           126.4915         estimate D2E/DX2                !
 ! A257  A(37,36,38)            98.2769         estimate D2E/DX2                !
 ! A258  A(13,39,38)           110.3451         estimate D2E/DX2                !
 ! A259  A(13,39,40)           136.7386         estimate D2E/DX2                !
 ! A260  A(13,39,41)           143.5503         estimate D2E/DX2                !
 ! A261  A(16,39,36)            99.183          estimate D2E/DX2                !
 ! A262  A(16,39,37)           112.2708         estimate D2E/DX2                !
 ! A263  A(16,39,38)           102.1313         estimate D2E/DX2                !
 ! A264  A(16,39,40)           129.2618         estimate D2E/DX2                !
 ! A265  A(16,39,41)            91.7963         estimate D2E/DX2                !
 ! A266  A(36,39,40)           131.3851         estimate D2E/DX2                !
 ! A267  A(36,39,41)           147.8934         estimate D2E/DX2                !
 ! A268  A(37,39,38)           104.5096         estimate D2E/DX2                !
 ! A269  A(37,39,40)            97.4785         estimate D2E/DX2                !
 ! A270  A(37,39,41)           146.2456         estimate D2E/DX2                !
 ! A271  A(38,39,40)           109.1392         estimate D2E/DX2                !
 ! A272  A(38,39,41)            92.4065         estimate D2E/DX2                !
 ! A273  A(39,40,42)            83.5722         estimate D2E/DX2                !
 ! A274  A(39,41,42)            86.9685         estimate D2E/DX2                !
 ! A275  A(19,42,40)           140.5551         estimate D2E/DX2                !
 ! A276  A(19,42,41)           101.7123         estimate D2E/DX2                !
 ! A277  A(19,42,43)            98.8427         estimate D2E/DX2                !
 ! A278  A(19,42,44)           109.069          estimate D2E/DX2                !
 ! A279  A(40,42,43)            85.3351         estimate D2E/DX2                !
 ! A280  A(40,42,44)           105.5918         estimate D2E/DX2                !
 ! A281  A(41,42,43)           123.8397         estimate D2E/DX2                !
 ! A282  A(41,42,44)           110.0012         estimate D2E/DX2                !
 ! A283  A(43,42,44)           111.3952         estimate D2E/DX2                !
 ! A284  A(18,43,42)            82.9475         estimate D2E/DX2                !
 ! A285  A(31,45,34)            96.588          estimate D2E/DX2                !
 ! A286  A(31,45,47)           100.7104         estimate D2E/DX2                !
 ! A287  A(31,45,48)            83.412          estimate D2E/DX2                !
 ! A288  A(34,45,46)            90.0            estimate D2E/DX2                !
 ! A289  A(34,45,47)            90.0            estimate D2E/DX2                !
 ! A290  A(46,45,47)            90.0            estimate D2E/DX2                !
 ! A291  A(46,45,48)            90.0            estimate D2E/DX2                !
 ! A292  A(47,45,48)            90.0            estimate D2E/DX2                !
 ! A293  L(4,9,26,2,-1)        190.5879         estimate D2E/DX2                !
 ! A294  L(6,9,27,1,-1)        191.2938         estimate D2E/DX2                !
 ! A295  L(8,9,11,1,-1)        193.0821         estimate D2E/DX2                !
 ! A296  L(21,12,27,2,-1)      182.5786         estimate D2E/DX2                !
 ! A297  L(6,13,36,10,-1)      168.9158         estimate D2E/DX2                !
 ! A298  L(8,13,37,7,-1)       179.9149         estimate D2E/DX2                !
 ! A299  L(10,24,32,17,-1)     169.9604         estimate D2E/DX2                !
 ! A300  L(33,36,39,17,-1)     185.0456         estimate D2E/DX2                !
 ! A301  L(31,45,46,34,-1)     186.588          estimate D2E/DX2                !
 ! A302  L(34,45,48,31,-1)     180.0            estimate D2E/DX2                !
 ! A303  L(45,46,49,19,-1)     180.0            estimate D2E/DX2                !
 ! A304  L(45,47,50,49,-1)     180.0            estimate D2E/DX2                !
 ! A305  L(45,48,51,5,-1)      180.0            estimate D2E/DX2                !
 ! A306  L(4,9,26,2,-2)        187.6885         estimate D2E/DX2                !
 ! A307  L(6,9,27,1,-2)        186.0391         estimate D2E/DX2                !
 ! A308  L(8,9,11,1,-2)        175.5059         estimate D2E/DX2                !
 ! A309  L(21,12,27,2,-2)      180.298          estimate D2E/DX2                !
 ! A310  L(6,13,36,10,-2)      188.2904         estimate D2E/DX2                !
 ! A311  L(8,13,37,7,-2)       193.3215         estimate D2E/DX2                !
 ! A312  L(10,24,32,17,-2)     171.8679         estimate D2E/DX2                !
 ! A313  L(33,36,39,17,-2)     172.0602         estimate D2E/DX2                !
 ! A314  L(31,45,46,34,-2)     190.7824         estimate D2E/DX2                !
 ! A315  L(34,45,48,31,-2)     180.0            estimate D2E/DX2                !
 ! A316  L(45,46,49,19,-2)     180.0            estimate D2E/DX2                !
 ! A317  L(45,47,50,49,-2)     180.0            estimate D2E/DX2                !
 ! A318  L(45,48,51,5,-2)      180.0            estimate D2E/DX2                !
 ! D1    D(2,1,3,6)             85.2788         estimate D2E/DX2                !
 ! D2    D(4,1,3,6)            -31.3798         estimate D2E/DX2                !
 ! D3    D(5,1,3,6)           -111.4351         estimate D2E/DX2                !
 ! D4    D(9,1,3,6)             25.3891         estimate D2E/DX2                !
 ! D5    D(12,1,3,6)            81.9166         estimate D2E/DX2                !
 ! D6    D(23,1,3,6)           172.8826         estimate D2E/DX2                !
 ! D7    D(2,1,4,6)            -71.1866         estimate D2E/DX2                !
 ! D8    D(3,1,4,6)             31.4534         estimate D2E/DX2                !
 ! D9    D(5,1,4,6)           -178.3269         estimate D2E/DX2                !
 ! D10   D(12,1,4,6)          -123.3431         estimate D2E/DX2                !
 ! D11   D(23,1,4,6)           106.0865         estimate D2E/DX2                !
 ! D12   D(2,1,5,21)            69.3836         estimate D2E/DX2                !
 ! D13   D(3,1,5,21)           -93.4464         estimate D2E/DX2                !
 ! D14   D(4,1,5,21)          -174.563          estimate D2E/DX2                !
 ! D15   D(9,1,5,21)           127.649          estimate D2E/DX2                !
 ! D16   D(23,1,5,21)          -18.8143         estimate D2E/DX2                !
 ! D17   D(3,1,9,6)            -21.5403         estimate D2E/DX2                !
 ! D18   D(3,1,9,8)             15.0637         estimate D2E/DX2                !
 ! D19   D(3,1,9,10)           -71.7959         estimate D2E/DX2                !
 ! D20   D(3,1,9,11)          -160.4421         estimate D2E/DX2                !
 ! D21   D(3,1,9,26)            92.4251         estimate D2E/DX2                !
 ! D22   D(3,1,9,27)           152.4206         estimate D2E/DX2                !
 ! D23   D(5,1,9,6)            138.2417         estimate D2E/DX2                !
 ! D24   D(5,1,9,8)            174.8458         estimate D2E/DX2                !
 ! D25   D(5,1,9,10)            87.9862         estimate D2E/DX2                !
 ! D26   D(5,1,9,11)            -0.6601         estimate D2E/DX2                !
 ! D27   D(5,1,9,26)          -107.7928         estimate D2E/DX2                !
 ! D28   D(5,1,9,27)           -47.7974         estimate D2E/DX2                !
 ! D29   D(23,1,9,6)          -126.8611         estimate D2E/DX2                !
 ! D30   D(23,1,9,8)           -90.257          estimate D2E/DX2                !
 ! D31   D(23,1,9,10)         -177.1166         estimate D2E/DX2                !
 ! D32   D(23,1,9,11)           94.2371         estimate D2E/DX2                !
 ! D33   D(23,1,9,26)          -12.8956         estimate D2E/DX2                !
 ! D34   D(23,1,9,27)           47.0998         estimate D2E/DX2                !
 ! D35   D(3,1,12,11)         -112.509          estimate D2E/DX2                !
 ! D36   D(3,1,12,14)           90.1331         estimate D2E/DX2                !
 ! D37   D(3,1,12,15)           -2.6466         estimate D2E/DX2                !
 ! D38   D(3,1,12,21)          116.7516         estimate D2E/DX2                !
 ! D39   D(3,1,12,27)          -65.6224         estimate D2E/DX2                !
 ! D40   D(4,1,12,11)           -1.7637         estimate D2E/DX2                !
 ! D41   D(4,1,12,14)         -159.1217         estimate D2E/DX2                !
 ! D42   D(4,1,12,15)          108.0986         estimate D2E/DX2                !
 ! D43   D(4,1,12,21)         -132.5031         estimate D2E/DX2                !
 ! D44   D(4,1,12,27)           45.1229         estimate D2E/DX2                !
 ! D45   D(23,1,12,11)         159.3566         estimate D2E/DX2                !
 ! D46   D(23,1,12,14)           1.9986         estimate D2E/DX2                !
 ! D47   D(23,1,12,15)         -90.7811         estimate D2E/DX2                !
 ! D48   D(23,1,12,21)          28.6172         estimate D2E/DX2                !
 ! D49   D(23,1,12,27)        -153.7569         estimate D2E/DX2                !
 ! D50   D(2,1,23,21)          -87.7392         estimate D2E/DX2                !
 ! D51   D(3,1,23,21)          170.5106         estimate D2E/DX2                !
 ! D52   D(4,1,23,21)           94.708          estimate D2E/DX2                !
 ! D53   D(5,1,23,21)           19.677          estimate D2E/DX2                !
 ! D54   D(9,1,23,21)          -77.4834         estimate D2E/DX2                !
 ! D55   D(12,1,23,21)         -36.7202         estimate D2E/DX2                !
 ! D56   D(1,2,9,12)           -83.0152         estimate D2E/DX2                !
 ! D57   D(1,3,6,4)             30.4982         estimate D2E/DX2                !
 ! D58   D(1,3,6,7)             88.5181         estimate D2E/DX2                !
 ! D59   D(1,3,6,8)            -75.1792         estimate D2E/DX2                !
 ! D60   D(1,3,6,9)            -20.8489         estimate D2E/DX2                !
 ! D61   D(1,3,6,13)           -77.3985         estimate D2E/DX2                !
 ! D62   D(1,3,6,18)          -179.6367         estimate D2E/DX2                !
 ! D63   D(1,3,6,20)          -177.3431         estimate D2E/DX2                !
 ! D64   D(1,4,6,3)            -30.2218         estimate D2E/DX2                !
 ! D65   D(1,4,6,7)            174.3167         estimate D2E/DX2                !
 ! D66   D(1,4,6,8)             73.2122         estimate D2E/DX2                !
 ! D67   D(1,4,6,13)           128.54           estimate D2E/DX2                !
 ! D68   D(1,4,6,18)           178.9934         estimate D2E/DX2                !
 ! D69   D(1,4,6,20)           -99.9592         estimate D2E/DX2                !
 ! D70   D(1,5,21,14)          -92.9163         estimate D2E/DX2                !
 ! D71   D(1,5,21,22)          143.5237         estimate D2E/DX2                !
 ! D72   D(1,5,21,23)           22.8037         estimate D2E/DX2                !
 ! D73   D(3,6,9,1)             19.7734         estimate D2E/DX2                !
 ! D74   D(3,6,9,2)            -28.5585         estimate D2E/DX2                !
 ! D75   D(3,6,9,10)           170.2818         estimate D2E/DX2                !
 ! D76   D(3,6,9,11)            94.3274         estimate D2E/DX2                !
 ! D77   D(3,6,9,12)            14.3084         estimate D2E/DX2                !
 ! D78   D(3,6,9,26)          -111.6489         estimate D2E/DX2                !
 ! D79   D(7,6,9,1)           -133.0844         estimate D2E/DX2                !
 ! D80   D(7,6,9,2)            178.5838         estimate D2E/DX2                !
 ! D81   D(7,6,9,10)            17.4241         estimate D2E/DX2                !
 ! D82   D(7,6,9,11)           -58.5303         estimate D2E/DX2                !
 ! D83   D(7,6,9,12)          -138.5494         estimate D2E/DX2                !
 ! D84   D(7,6,9,26)            95.4934         estimate D2E/DX2                !
 ! D85   D(13,6,9,1)          -179.0948         estimate D2E/DX2                !
 ! D86   D(13,6,9,2)           132.5734         estimate D2E/DX2                !
 ! D87   D(13,6,9,10)          -28.5863         estimate D2E/DX2                !
 ! D88   D(13,6,9,11)         -104.5407         estimate D2E/DX2                !
 ! D89   D(13,6,9,12)          175.4402         estimate D2E/DX2                !
 ! D90   D(13,6,9,26)           49.483          estimate D2E/DX2                !
 ! D91   D(18,6,9,1)          -179.8173         estimate D2E/DX2                !
 ! D92   D(18,6,9,2)           131.8508         estimate D2E/DX2                !
 ! D93   D(18,6,9,10)          -29.3089         estimate D2E/DX2                !
 ! D94   D(18,6,9,11)         -105.2633         estimate D2E/DX2                !
 ! D95   D(18,6,9,12)          174.7177         estimate D2E/DX2                !
 ! D96   D(18,6,9,26)           48.7604         estimate D2E/DX2                !
 ! D97   D(20,6,9,1)           102.0584         estimate D2E/DX2                !
 ! D98   D(20,6,9,2)            53.7265         estimate D2E/DX2                !
 ! D99   D(20,6,9,10)         -107.4332         estimate D2E/DX2                !
 ! D100  D(20,6,9,11)          176.6124         estimate D2E/DX2                !
 ! D101  D(20,6,9,12)           96.5934         estimate D2E/DX2                !
 ! D102  D(20,6,9,26)          -29.3639         estimate D2E/DX2                !
 ! D103  D(3,6,13,10)           88.1823         estimate D2E/DX2                !
 ! D104  D(3,6,13,16)          -75.7182         estimate D2E/DX2                !
 ! D105  D(3,6,13,17)           11.5929         estimate D2E/DX2                !
 ! D106  D(3,6,13,37)          163.9623         estimate D2E/DX2                !
 ! D107  D(3,6,13,39)         -116.5307         estimate D2E/DX2                !
 ! D108  D(4,6,13,10)          -16.954          estimate D2E/DX2                !
 ! D109  D(4,6,13,16)          179.1455         estimate D2E/DX2                !
 ! D110  D(4,6,13,17)          -93.5433         estimate D2E/DX2                !
 ! D111  D(4,6,13,37)           58.8261         estimate D2E/DX2                !
 ! D112  D(4,6,13,39)          138.3331         estimate D2E/DX2                !
 ! D113  D(9,6,13,10)           28.5693         estimate D2E/DX2                !
 ! D114  D(9,6,13,16)         -135.3312         estimate D2E/DX2                !
 ! D115  D(9,6,13,17)          -48.0201         estimate D2E/DX2                !
 ! D116  D(9,6,13,37)          104.3494         estimate D2E/DX2                !
 ! D117  D(9,6,13,39)         -176.1436         estimate D2E/DX2                !
 ! D118  D(20,6,13,10)        -174.8823         estimate D2E/DX2                !
 ! D119  D(20,6,13,16)          21.2172         estimate D2E/DX2                !
 ! D120  D(20,6,13,17)         108.5284         estimate D2E/DX2                !
 ! D121  D(20,6,13,37)         -99.1022         estimate D2E/DX2                !
 ! D122  D(20,6,13,39)         -19.5952         estimate D2E/DX2                !
 ! D123  D(3,6,18,16)          106.6925         estimate D2E/DX2                !
 ! D124  D(3,6,18,19)           19.1031         estimate D2E/DX2                !
 ! D125  D(3,6,18,43)         -110.4868         estimate D2E/DX2                !
 ! D126  D(4,6,18,16)         -115.845          estimate D2E/DX2                !
 ! D127  D(4,6,18,19)          156.5656         estimate D2E/DX2                !
 ! D128  D(4,6,18,43)           26.9758         estimate D2E/DX2                !
 ! D129  D(8,6,18,16)           -3.3687         estimate D2E/DX2                !
 ! D130  D(8,6,18,19)          -90.9582         estimate D2E/DX2                !
 ! D131  D(8,6,18,43)          139.452          estimate D2E/DX2                !
 ! D132  D(9,6,18,16)          -45.604          estimate D2E/DX2                !
 ! D133  D(9,6,18,19)         -133.1934         estimate D2E/DX2                !
 ! D134  D(9,6,18,43)           97.2167         estimate D2E/DX2                !
 ! D135  D(6,7,13,18)          -76.6154         estimate D2E/DX2                !
 ! D136  D(13,8,9,1)          -129.1927         estimate D2E/DX2                !
 ! D137  D(13,8,9,2)           177.1511         estimate D2E/DX2                !
 ! D138  D(13,8,9,4)           -73.9365         estimate D2E/DX2                !
 ! D139  D(13,8,9,10)           10.8733         estimate D2E/DX2                !
 ! D140  D(13,8,9,12)          171.1579         estimate D2E/DX2                !
 ! D141  D(13,8,9,26)           94.8395         estimate D2E/DX2                !
 ! D142  D(13,8,9,27)           92.9741         estimate D2E/DX2                !
 ! D143  D(9,8,13,7)            69.6508         estimate D2E/DX2                !
 ! D144  D(9,8,13,10)          -10.8548         estimate D2E/DX2                !
 ! D145  D(9,8,13,16)          179.2016         estimate D2E/DX2                !
 ! D146  D(9,8,13,17)          -94.0404         estimate D2E/DX2                !
 ! D147  D(9,8,13,18)          124.5047         estimate D2E/DX2                !
 ! D148  D(9,8,13,36)          -89.1791         estimate D2E/DX2                !
 ! D149  D(9,8,13,39)         -169.8591         estimate D2E/DX2                !
 ! D150  D(1,9,10,13)           80.6652         estimate D2E/DX2                !
 ! D151  D(1,9,10,24)          179.7323         estimate D2E/DX2                !
 ! D152  D(2,9,10,13)          -58.2155         estimate D2E/DX2                !
 ! D153  D(2,9,10,24)           40.8516         estimate D2E/DX2                !
 ! D154  D(4,9,10,13)           86.1984         estimate D2E/DX2                !
 ! D155  D(4,9,10,24)         -174.7345         estimate D2E/DX2                !
 ! D156  D(6,9,10,13)           35.1975         estimate D2E/DX2                !
 ! D157  D(6,9,10,24)          134.2646         estimate D2E/DX2                !
 ! D158  D(8,9,10,13)          -11.0852         estimate D2E/DX2                !
 ! D159  D(8,9,10,24)           87.9819         estimate D2E/DX2                !
 ! D160  D(11,9,10,13)         173.8393         estimate D2E/DX2                !
 ! D161  D(11,9,10,24)         -87.0936         estimate D2E/DX2                !
 ! D162  D(12,9,10,13)        -171.1619         estimate D2E/DX2                !
 ! D163  D(12,9,10,24)         -72.0948         estimate D2E/DX2                !
 ! D164  D(26,9,10,13)         -88.3814         estimate D2E/DX2                !
 ! D165  D(26,9,10,24)          10.6857         estimate D2E/DX2                !
 ! D166  D(27,9,10,13)        -134.8058         estimate D2E/DX2                !
 ! D167  D(27,9,10,24)         -35.7387         estimate D2E/DX2                !
 ! D168  D(4,9,12,5)             1.7876         estimate D2E/DX2                !
 ! D169  D(4,9,12,14)          -87.7522         estimate D2E/DX2                !
 ! D170  D(4,9,12,15)          164.9284         estimate D2E/DX2                !
 ! D171  D(4,9,12,21)          -37.5819         estimate D2E/DX2                !
 ! D172  D(6,9,12,5)            48.8874         estimate D2E/DX2                !
 ! D173  D(6,9,12,14)          -40.6524         estimate D2E/DX2                !
 ! D174  D(6,9,12,15)         -147.9718         estimate D2E/DX2                !
 ! D175  D(6,9,12,21)            9.5178         estimate D2E/DX2                !
 ! D176  D(8,9,12,5)           114.8443         estimate D2E/DX2                !
 ! D177  D(8,9,12,14)           25.3044         estimate D2E/DX2                !
 ! D178  D(8,9,12,15)          -82.0149         estimate D2E/DX2                !
 ! D179  D(8,9,12,21)           75.4747         estimate D2E/DX2                !
 ! D180  D(10,9,12,5)          -94.5775         estimate D2E/DX2                !
 ! D181  D(10,9,12,14)         175.8826         estimate D2E/DX2                !
 ! D182  D(10,9,12,15)          68.5632         estimate D2E/DX2                !
 ! D183  D(10,9,12,21)        -133.9471         estimate D2E/DX2                !
 ! D184  D(26,9,12,5)         -174.2281         estimate D2E/DX2                !
 ! D185  D(26,9,12,14)          96.232          estimate D2E/DX2                !
 ! D186  D(26,9,12,15)         -11.0874         estimate D2E/DX2                !
 ! D187  D(26,9,12,21)         146.4023         estimate D2E/DX2                !
 ! D188  D(1,9,26,24)         -179.9868         estimate D2E/DX2                !
 ! D189  D(2,9,26,24)          179.3583         estimate D2E/DX2                !
 ! D190  D(6,9,26,24)          -89.6067         estimate D2E/DX2                !
 ! D191  D(8,9,26,24)          -94.6062         estimate D2E/DX2                !
 ! D192  D(10,9,26,24)         -10.0649         estimate D2E/DX2                !
 ! D193  D(11,9,26,24)          73.0016         estimate D2E/DX2                !
 ! D194  D(12,9,26,24)         127.3843         estimate D2E/DX2                !
 ! D195  D(1,9,27,15)          -22.649          estimate D2E/DX2                !
 ! D196  D(1,9,27,28)          139.0375         estimate D2E/DX2                !
 ! D197  D(1,9,27,29)         -117.668          estimate D2E/DX2                !
 ! D198  D(2,9,27,15)           22.0658         estimate D2E/DX2                !
 ! D199  D(2,9,27,28)         -176.2477         estimate D2E/DX2                !
 ! D200  D(2,9,27,29)          -72.9532         estimate D2E/DX2                !
 ! D201  D(4,9,27,15)          -95.8286         estimate D2E/DX2                !
 ! D202  D(4,9,27,28)           65.8579         estimate D2E/DX2                !
 ! D203  D(4,9,27,29)          169.1523         estimate D2E/DX2                !
 ! D204  D(8,9,27,15)          103.9841         estimate D2E/DX2                !
 ! D205  D(8,9,27,28)          -94.3293         estimate D2E/DX2                !
 ! D206  D(8,9,27,29)            8.9651         estimate D2E/DX2                !
 ! D207  D(10,9,27,15)        -176.1942         estimate D2E/DX2                !
 ! D208  D(10,9,27,28)         -14.5077         estimate D2E/DX2                !
 ! D209  D(10,9,27,29)          88.7867         estimate D2E/DX2                !
 ! D210  D(9,10,13,6)          -34.7494         estimate D2E/DX2                !
 ! D211  D(9,10,13,7)          -83.9483         estimate D2E/DX2                !
 ! D212  D(9,10,13,8)           11.0798         estimate D2E/DX2                !
 ! D213  D(9,10,13,16)          49.7912         estimate D2E/DX2                !
 ! D214  D(9,10,13,17)          89.1839         estimate D2E/DX2                !
 ! D215  D(9,10,13,18)         -68.8319         estimate D2E/DX2                !
 ! D216  D(9,10,13,36)         136.9602         estimate D2E/DX2                !
 ! D217  D(9,10,13,37)        -170.9191         estimate D2E/DX2                !
 ! D218  D(9,10,13,39)         170.7596         estimate D2E/DX2                !
 ! D219  D(24,10,13,6)        -135.7791         estimate D2E/DX2                !
 ! D220  D(24,10,13,7)         175.0219         estimate D2E/DX2                !
 ! D221  D(24,10,13,8)         -89.95           estimate D2E/DX2                !
 ! D222  D(24,10,13,16)        -51.2386         estimate D2E/DX2                !
 ! D223  D(24,10,13,17)        -11.8458         estimate D2E/DX2                !
 ! D224  D(24,10,13,18)       -169.8616         estimate D2E/DX2                !
 ! D225  D(24,10,13,36)         35.9304         estimate D2E/DX2                !
 ! D226  D(24,10,13,37)         88.0511         estimate D2E/DX2                !
 ! D227  D(24,10,13,39)         69.7298         estimate D2E/DX2                !
 ! D228  D(9,10,24,17)         -86.6401         estimate D2E/DX2                !
 ! D229  D(9,10,24,25)         175.006          estimate D2E/DX2                !
 ! D230  D(9,10,24,26)         -10.4776         estimate D2E/DX2                !
 ! D231  D(9,10,24,28)          81.6341         estimate D2E/DX2                !
 ! D232  D(9,10,24,30)          65.7565         estimate D2E/DX2                !
 ! D233  D(9,10,24,33)        -169.7854         estimate D2E/DX2                !
 ! D234  D(9,10,24,36)        -132.8043         estimate D2E/DX2                !
 ! D235  D(13,10,24,17)         11.9203         estimate D2E/DX2                !
 ! D236  D(13,10,24,25)        -86.4336         estimate D2E/DX2                !
 ! D237  D(13,10,24,26)         88.0828         estimate D2E/DX2                !
 ! D238  D(13,10,24,28)       -179.8056         estimate D2E/DX2                !
 ! D239  D(13,10,24,30)        164.3169         estimate D2E/DX2                !
 ! D240  D(13,10,24,33)        -71.225          estimate D2E/DX2                !
 ! D241  D(13,10,24,36)        -34.244          estimate D2E/DX2                !
 ! D242  D(9,11,12,27)         -81.0551         estimate D2E/DX2                !
 ! D243  D(1,12,21,22)         143.3526         estimate D2E/DX2                !
 ! D244  D(1,12,21,23)         -34.6667         estimate D2E/DX2                !
 ! D245  D(2,12,21,22)        -169.9343         estimate D2E/DX2                !
 ! D246  D(2,12,21,23)          12.0463         estimate D2E/DX2                !
 ! D247  D(9,12,21,22)         139.7139         estimate D2E/DX2                !
 ! D248  D(9,12,21,23)         -38.3055         estimate D2E/DX2                !
 ! D249  D(11,12,21,22)         74.6611         estimate D2E/DX2                !
 ! D250  D(11,12,21,23)       -103.3583         estimate D2E/DX2                !
 ! D251  D(15,12,21,22)        -67.2695         estimate D2E/DX2                !
 ! D252  D(15,12,21,23)        114.7111         estimate D2E/DX2                !
 ! D253  D(1,12,27,26)          42.3581         estimate D2E/DX2                !
 ! D254  D(1,12,27,28)         -71.5497         estimate D2E/DX2                !
 ! D255  D(1,12,27,29)         146.1652         estimate D2E/DX2                !
 ! D256  D(2,12,27,26)          -5.4593         estimate D2E/DX2                !
 ! D257  D(2,12,27,28)        -119.367          estimate D2E/DX2                !
 ! D258  D(2,12,27,29)          98.3479         estimate D2E/DX2                !
 ! D259  D(5,12,27,26)         106.8507         estimate D2E/DX2                !
 ! D260  D(5,12,27,28)          -7.057          estimate D2E/DX2                !
 ! D261  D(5,12,27,29)        -149.3421         estimate D2E/DX2                !
 ! D262  D(14,12,27,26)       -103.3868         estimate D2E/DX2                !
 ! D263  D(14,12,27,28)        142.7055         estimate D2E/DX2                !
 ! D264  D(14,12,27,29)          0.4204         estimate D2E/DX2                !
 ! D265  D(6,13,17,24)          89.6979         estimate D2E/DX2                !
 ! D266  D(7,13,17,24)          33.7115         estimate D2E/DX2                !
 ! D267  D(8,13,17,24)          96.2215         estimate D2E/DX2                !
 ! D268  D(10,13,17,24)         11.7483         estimate D2E/DX2                !
 ! D269  D(16,13,17,24)       -178.4404         estimate D2E/DX2                !
 ! D270  D(18,13,17,24)        167.7524         estimate D2E/DX2                !
 ! D271  D(37,13,17,24)        -70.8205         estimate D2E/DX2                !
 ! D272  D(39,13,17,24)       -124.6795         estimate D2E/DX2                !
 ! D273  D(8,13,18,19)         100.6635         estimate D2E/DX2                !
 ! D274  D(8,13,18,20)         -10.8812         estimate D2E/DX2                !
 ! D275  D(8,13,18,43)        -159.125          estimate D2E/DX2                !
 ! D276  D(10,13,18,19)        178.5046         estimate D2E/DX2                !
 ! D277  D(10,13,18,20)         66.9599         estimate D2E/DX2                !
 ! D278  D(10,13,18,43)        -81.284          estimate D2E/DX2                !
 ! D279  D(17,13,18,19)         32.8657         estimate D2E/DX2                !
 ! D280  D(17,13,18,20)        -78.679          estimate D2E/DX2                !
 ! D281  D(17,13,18,43)        133.0771         estimate D2E/DX2                !
 ! D282  D(36,13,18,19)        -39.1867         estimate D2E/DX2                !
 ! D283  D(36,13,18,20)       -150.7314         estimate D2E/DX2                !
 ! D284  D(36,13,18,43)         61.0248         estimate D2E/DX2                !
 ! D285  D(37,13,18,19)        -87.2952         estimate D2E/DX2                !
 ! D286  D(37,13,18,20)        161.1601         estimate D2E/DX2                !
 ! D287  D(37,13,18,43)         12.9162         estimate D2E/DX2                !
 ! D288  D(39,13,18,19)        -39.8736         estimate D2E/DX2                !
 ! D289  D(39,13,18,20)       -151.4183         estimate D2E/DX2                !
 ! D290  D(39,13,18,43)         60.3379         estimate D2E/DX2                !
 ! D291  D(7,13,36,24)         -99.873          estimate D2E/DX2                !
 ! D292  D(7,13,36,25)         -56.2813         estimate D2E/DX2                !
 ! D293  D(7,13,36,33)        -100.339          estimate D2E/DX2                !
 ! D294  D(7,13,36,35)        -170.9324         estimate D2E/DX2                !
 ! D295  D(7,13,36,38)         109.4086         estimate D2E/DX2                !
 ! D296  D(8,13,36,24)          48.3891         estimate D2E/DX2                !
 ! D297  D(8,13,36,25)          91.9808         estimate D2E/DX2                !
 ! D298  D(8,13,36,33)          47.9231         estimate D2E/DX2                !
 ! D299  D(8,13,36,35)         -22.6703         estimate D2E/DX2                !
 ! D300  D(8,13,36,38)        -102.3293         estimate D2E/DX2                !
 ! D301  D(10,13,36,24)        -29.0641         estimate D2E/DX2                !
 ! D302  D(10,13,36,25)         14.5276         estimate D2E/DX2                !
 ! D303  D(10,13,36,33)        -29.5301         estimate D2E/DX2                !
 ! D304  D(10,13,36,35)       -100.1235         estimate D2E/DX2                !
 ! D305  D(10,13,36,38)       -179.7825         estimate D2E/DX2                !
 ! D306  D(16,13,36,24)        134.7699         estimate D2E/DX2                !
 ! D307  D(16,13,36,25)        178.3616         estimate D2E/DX2                !
 ! D308  D(16,13,36,33)        134.3039         estimate D2E/DX2                !
 ! D309  D(16,13,36,35)         63.7105         estimate D2E/DX2                !
 ! D310  D(16,13,36,38)        -15.9485         estimate D2E/DX2                !
 ! D311  D(18,13,36,24)        176.9145         estimate D2E/DX2                !
 ! D312  D(18,13,36,25)       -139.4938         estimate D2E/DX2                !
 ! D313  D(18,13,36,33)        176.4485         estimate D2E/DX2                !
 ! D314  D(18,13,36,35)        105.8551         estimate D2E/DX2                !
 ! D315  D(18,13,36,38)         26.1961         estimate D2E/DX2                !
 ! D316  D(6,13,39,38)         145.1876         estimate D2E/DX2                !
 ! D317  D(6,13,39,40)         -60.0891         estimate D2E/DX2                !
 ! D318  D(6,13,39,41)          19.9187         estimate D2E/DX2                !
 ! D319  D(7,13,39,38)        -166.206          estimate D2E/DX2                !
 ! D320  D(7,13,39,40)         -11.4827         estimate D2E/DX2                !
 ! D321  D(7,13,39,41)          68.5252         estimate D2E/DX2                !
 ! D322  D(8,13,39,38)          77.8463         estimate D2E/DX2                !
 ! D323  D(8,13,39,40)        -127.4304         estimate D2E/DX2                !
 ! D324  D(8,13,39,41)         -47.4225         estimate D2E/DX2                !
 ! D325  D(10,13,39,38)        -71.4747         estimate D2E/DX2                !
 ! D326  D(10,13,39,40)         83.2486         estimate D2E/DX2                !
 ! D327  D(10,13,39,41)        163.2564         estimate D2E/DX2                !
 ! D328  D(17,13,39,38)          6.8068         estimate D2E/DX2                !
 ! D329  D(17,13,39,40)        161.5301         estimate D2E/DX2                !
 ! D330  D(17,13,39,41)       -118.4621         estimate D2E/DX2                !
 ! D331  D(18,13,39,38)        147.9808         estimate D2E/DX2                !
 ! D332  D(18,13,39,40)        -57.2959         estimate D2E/DX2                !
 ! D333  D(18,13,39,41)         22.712          estimate D2E/DX2                !
 ! D334  D(39,16,18,6)         121.0925         estimate D2E/DX2                !
 ! D335  D(39,16,18,7)          67.3463         estimate D2E/DX2                !
 ! D336  D(39,16,18,19)       -100.597          estimate D2E/DX2                !
 ! D337  D(39,16,18,20)        176.5448         estimate D2E/DX2                !
 ! D338  D(39,16,18,43)        -23.8862         estimate D2E/DX2                !
 ! D339  D(18,16,39,36)       -116.8227         estimate D2E/DX2                !
 ! D340  D(18,16,39,37)        -62.2862         estimate D2E/DX2                !
 ! D341  D(18,16,39,38)       -173.6909         estimate D2E/DX2                !
 ! D342  D(18,16,39,40)         58.8046         estimate D2E/DX2                !
 ! D343  D(18,16,39,41)         93.4598         estimate D2E/DX2                !
 ! D344  D(13,17,24,10)        -11.6831         estimate D2E/DX2                !
 ! D345  D(13,17,24,25)         71.4586         estimate D2E/DX2                !
 ! D346  D(13,17,24,26)        -94.4424         estimate D2E/DX2                !
 ! D347  D(13,17,24,28)        -52.4417         estimate D2E/DX2                !
 ! D348  D(13,17,24,30)       -162.137          estimate D2E/DX2                !
 ! D349  D(13,17,24,32)        176.4489         estimate D2E/DX2                !
 ! D350  D(13,17,24,33)        123.4203         estimate D2E/DX2                !
 ! D351  D(6,18,19,42)        -169.2295         estimate D2E/DX2                !
 ! D352  D(7,18,19,42)         -44.0528         estimate D2E/DX2                !
 ! D353  D(13,18,19,42)         81.6499         estimate D2E/DX2                !
 ! D354  D(16,18,19,42)         95.1253         estimate D2E/DX2                !
 ! D355  D(20,18,19,42)       -156.2293         estimate D2E/DX2                !
 ! D356  D(43,18,19,42)        -28.1705         estimate D2E/DX2                !
 ! D357  D(6,18,43,42)         175.5761         estimate D2E/DX2                !
 ! D358  D(7,18,43,42)        -158.6129         estimate D2E/DX2                !
 ! D359  D(13,18,43,42)       -109.9914         estimate D2E/DX2                !
 ! D360  D(16,18,43,42)        -48.3514         estimate D2E/DX2                !
 ! D361  D(19,18,43,42)         26.0936         estimate D2E/DX2                !
 ! D362  D(20,18,43,42)        106.9421         estimate D2E/DX2                !
 ! D363  D(18,19,42,40)        -63.9749         estimate D2E/DX2                !
 ! D364  D(18,19,42,41)        -97.9922         estimate D2E/DX2                !
 ! D365  D(18,19,42,43)         29.4388         estimate D2E/DX2                !
 ! D366  D(18,19,42,44)        145.8237         estimate D2E/DX2                !
 ! D367  D(5,21,23,1)          -21.7724         estimate D2E/DX2                !
 ! D368  D(12,21,23,1)          35.2236         estimate D2E/DX2                !
 ! D369  D(14,21,23,1)          90.7965         estimate D2E/DX2                !
 ! D370  D(22,21,23,1)        -143.6352         estimate D2E/DX2                !
 ! D371  D(10,24,26,9)          10.0306         estimate D2E/DX2                !
 ! D372  D(10,24,26,27)         85.3028         estimate D2E/DX2                !
 ! D373  D(17,24,26,9)          93.9508         estimate D2E/DX2                !
 ! D374  D(17,24,26,27)        169.223          estimate D2E/DX2                !
 ! D375  D(25,24,26,9)          30.6256         estimate D2E/DX2                !
 ! D376  D(25,24,26,27)        105.8978         estimate D2E/DX2                !
 ! D377  D(28,24,26,9)         -74.083          estimate D2E/DX2                !
 ! D378  D(28,24,26,27)          1.1892         estimate D2E/DX2                !
 ! D379  D(30,24,26,9)        -125.1577         estimate D2E/DX2                !
 ! D380  D(30,24,26,27)        -49.8854         estimate D2E/DX2                !
 ! D381  D(32,24,26,9)        -177.677          estimate D2E/DX2                !
 ! D382  D(32,24,26,27)       -102.4048         estimate D2E/DX2                !
 ! D383  D(33,24,26,9)         166.9853         estimate D2E/DX2                !
 ! D384  D(33,24,26,27)       -117.7425         estimate D2E/DX2                !
 ! D385  D(36,24,26,9)          84.4836         estimate D2E/DX2                !
 ! D386  D(36,24,26,27)        159.7558         estimate D2E/DX2                !
 ! D387  D(10,24,28,27)        -81.8715         estimate D2E/DX2                !
 ! D388  D(17,24,28,27)        -41.3711         estimate D2E/DX2                !
 ! D389  D(25,24,28,27)       -165.8807         estimate D2E/DX2                !
 ! D390  D(26,24,28,27)         -1.0564         estimate D2E/DX2                !
 ! D391  D(32,24,28,27)         87.8412         estimate D2E/DX2                !
 ! D392  D(33,24,28,27)        142.9585         estimate D2E/DX2                !
 ! D393  D(36,24,28,27)       -149.4592         estimate D2E/DX2                !
 ! D394  D(10,24,30,29)        -68.6774         estimate D2E/DX2                !
 ! D395  D(10,24,30,31)        177.2107         estimate D2E/DX2                !
 ! D396  D(17,24,30,29)         68.9403         estimate D2E/DX2                !
 ! D397  D(17,24,30,31)        -45.1717         estimate D2E/DX2                !
 ! D398  D(25,24,30,29)       -168.0185         estimate D2E/DX2                !
 ! D399  D(25,24,30,31)         77.8696         estimate D2E/DX2                !
 ! D400  D(26,24,30,29)          5.2933         estimate D2E/DX2                !
 ! D401  D(26,24,30,31)       -108.8187         estimate D2E/DX2                !
 ! D402  D(33,24,30,29)        148.0083         estimate D2E/DX2                !
 ! D403  D(33,24,30,31)         33.8964         estimate D2E/DX2                !
 ! D404  D(36,24,30,29)        141.7117         estimate D2E/DX2                !
 ! D405  D(36,24,30,31)         27.5997         estimate D2E/DX2                !
 ! D406  D(10,24,33,34)       -161.1653         estimate D2E/DX2                !
 ! D407  D(10,24,33,35)         71.3654         estimate D2E/DX2                !
 ! D408  D(17,24,33,34)        119.4103         estimate D2E/DX2                !
 ! D409  D(17,24,33,35)         -8.059          estimate D2E/DX2                !
 ! D410  D(26,24,33,34)         51.7841         estimate D2E/DX2                !
 ! D411  D(26,24,33,35)        -75.6852         estimate D2E/DX2                !
 ! D412  D(28,24,33,34)        -61.93           estimate D2E/DX2                !
 ! D413  D(28,24,33,35)        170.6007         estimate D2E/DX2                !
 ! D414  D(30,24,33,34)        -18.6597         estimate D2E/DX2                !
 ! D415  D(30,24,33,35)       -146.129          estimate D2E/DX2                !
 ! D416  D(10,24,36,13)         29.119          estimate D2E/DX2                !
 ! D417  D(10,24,36,35)       -174.7482         estimate D2E/DX2                !
 ! D418  D(10,24,36,37)        -18.316          estimate D2E/DX2                !
 ! D419  D(10,24,36,38)        115.6277         estimate D2E/DX2                !
 ! D420  D(10,24,36,39)         31.8485         estimate D2E/DX2                !
 ! D421  D(26,24,36,13)        -45.1598         estimate D2E/DX2                !
 ! D422  D(26,24,36,35)        110.973          estimate D2E/DX2                !
 ! D423  D(26,24,36,37)        -92.5949         estimate D2E/DX2                !
 ! D424  D(26,24,36,38)         41.3489         estimate D2E/DX2                !
 ! D425  D(26,24,36,39)        -42.4303         estimate D2E/DX2                !
 ! D426  D(28,24,36,13)         97.6696         estimate D2E/DX2                !
 ! D427  D(28,24,36,35)       -106.1976         estimate D2E/DX2                !
 ! D428  D(28,24,36,37)         50.2346         estimate D2E/DX2                !
 ! D429  D(28,24,36,38)       -175.8217         estimate D2E/DX2                !
 ! D430  D(28,24,36,39)        100.3992         estimate D2E/DX2                !
 ! D431  D(30,24,36,13)       -172.6357         estimate D2E/DX2                !
 ! D432  D(30,24,36,35)        -16.5029         estimate D2E/DX2                !
 ! D433  D(30,24,36,37)        139.9293         estimate D2E/DX2                !
 ! D434  D(30,24,36,38)        -86.127          estimate D2E/DX2                !
 ! D435  D(30,24,36,39)       -169.9062         estimate D2E/DX2                !
 ! D436  D(32,24,36,13)       -137.9048         estimate D2E/DX2                !
 ! D437  D(32,24,36,35)         18.228          estimate D2E/DX2                !
 ! D438  D(32,24,36,37)        174.6601         estimate D2E/DX2                !
 ! D439  D(32,24,36,38)        -51.3961         estimate D2E/DX2                !
 ! D440  D(32,24,36,39)       -135.1753         estimate D2E/DX2                !
 ! D441  D(24,25,33,36)        -80.5653         estimate D2E/DX2                !
 ! D442  D(24,26,27,11)        -85.321          estimate D2E/DX2                !
 ! D443  D(24,26,27,12)       -139.8967         estimate D2E/DX2                !
 ! D444  D(24,26,27,15)        167.1146         estimate D2E/DX2                !
 ! D445  D(24,26,27,28)         -1.191          estimate D2E/DX2                !
 ! D446  D(24,26,27,29)         86.7015         estimate D2E/DX2                !
 ! D447  D(9,27,28,24)          60.089          estimate D2E/DX2                !
 ! D448  D(9,27,28,30)         134.2636         estimate D2E/DX2                !
 ! D449  D(11,27,28,24)        109.1716         estimate D2E/DX2                !
 ! D450  D(11,27,28,30)       -176.6537         estimate D2E/DX2                !
 ! D451  D(12,27,28,24)        113.7693         estimate D2E/DX2                !
 ! D452  D(12,27,28,30)       -172.056          estimate D2E/DX2                !
 ! D453  D(15,27,28,24)       -156.4497         estimate D2E/DX2                !
 ! D454  D(15,27,28,30)        -82.275          estimate D2E/DX2                !
 ! D455  D(26,27,28,24)          1.2851         estimate D2E/DX2                !
 ! D456  D(26,27,28,30)         75.4597         estimate D2E/DX2                !
 ! D457  D(29,27,28,24)        -93.39           estimate D2E/DX2                !
 ! D458  D(29,27,28,30)        -19.2154         estimate D2E/DX2                !
 ! D459  D(9,27,29,30)         -86.0483         estimate D2E/DX2                !
 ! D460  D(11,27,29,30)         81.7476         estimate D2E/DX2                !
 ! D461  D(12,27,29,30)        174.6508         estimate D2E/DX2                !
 ! D462  D(15,27,29,30)        172.762          estimate D2E/DX2                !
 ! D463  D(26,27,29,30)        -80.5676         estimate D2E/DX2                !
 ! D464  D(28,27,29,30)         20.3641         estimate D2E/DX2                !
 ! D465  D(27,28,30,29)         23.2802         estimate D2E/DX2                !
 ! D466  D(27,28,30,31)        144.4292         estimate D2E/DX2                !
 ! D467  D(27,28,30,32)        -89.9162         estimate D2E/DX2                !
[...]
 010830,-0.00003676,-0.00049179,-0.00016847,-0.00013528,-0.00612334,-0.
 04626117,0.00520658,0.00401329,0.00791393,0.00877068,0.00504081,-0.028
 37926,0.00067717,-0.50703925,0.54146909,-0.00003731,-0.00001172,-0.000
 00503,0.00000246,-0.00000402,0.00002818,-0.00002184,-0.00004139,0.0000
 3774,-0.00003803,-0.00002523,0.00001901,-0.00001416,-0.00002016,-0.000
 04001,0.00003732,-0.00001765,-0.00002400,-0.00000589,0.00000226,0.0000
 2078,0.00004244,0.00004614,0.00002555,-0.00020137,-0.00012683,-0.00001
 614,0.00014494,-0.00012372,0.00020582,0.00001993,-0.00002550,-0.000066
 69,-0.00009738,-0.00001148,0.00015199,0.00008539,-0.00012476,0.0000151
 6,0.00001479,-0.00000659,0.00002216,0.00003634,-0.00004686,-0.00000527
 ,-0.00001754,-0.00004863,-0.00002839,0.00012074,0.00009847,-0.00015351
 ,-0.00007503,0.00011926,-0.00014488,0.00002518,0.00001822,0.00007284,0
 .00003854,-0.00003457,0.00007135,-0.00010804,0.00031020,-0.00009857,0.
 00010582,-0.00021651,0.00007744,0.00001979,-0.00001315,0.00002103,0.00
 019222,-0.00020304,-0.00089868,-0.00071238,-0.00020898,0.00018429,0.00
 012595,-0.00005337,0.00017057,0.00040351,0.00046966,-0.00002136,-0.000
 10820,0.00022982,0.00025674,0.00013928,-0.00024423,0.00055084,-0.00111
 750,0.00012090,0.00104131,0.00457275,-0.00554366,-0.00753430,0.0006185
 0,0.00026232,-0.00050979,-0.00225617,-0.00030375,0.00098109,0.00673870
 ,0.00053158,0.00390199,-0.00013047,-0.00090801,-0.00034570,-0.00107431
 ,-0.00058681,0.00003074,0.00002390,0.00019074,0.00001191,0.00000604,0.
 00028176,-0.00005387,0.00028573,-0.00038388,0.00023011,-0.00006494,-0.
 00002419,0.00001178,-0.00008819,0.00007670,-0.00004085,0.00026060,0.00
 006570,-0.00007093,-0.00007780,-0.00000996,-0.00002424,-0.00017744,-0.
 00006465,-0.00004781,0.02412736,-0.01305552,-0.05918265,-0.01455015,0.
 01053416,0.00462757,-0.01356158,0.00818098,0.00520327,-0.15647197,0.13
 315604,0.13470770,-0.00003983,0.00004525,0.00003959,-0.00002310,-0.000
 01929,0.00000179,0.00004295,0.00000898,0.00000236,0.00003660,0.0000401
 7,-0.00002931,0.00002841,0.00002107,0.00002155,-0.00009970,0.00010393,
 0.00000856,-0.00003156,0.00001786,-0.00001660,-0.00007514,-0.00008999,
 0.00003134,0.00025783,0.00016026,-0.00007620,0.00005964,0.00013819,-0.
 00007168,0.00000358,0.00007987,0.00003642,0.00000246,-0.00003268,-0.00
 006399,0.00009807,0.00011996,-0.00016841,-0.00000482,0.00001708,-0.000
 03507,-0.00000319,-0.00000978,0.00003311,-0.00003706,-0.00000976,-0.00
 000211,-0.00015445,0.00005690,0.00001126,0.00010397,-0.00016325,0.0001
 6443,-0.00002044,-0.00001009,-0.00004147,-0.00001403,0.00002440,-0.000
 05753,0.00003745,-0.00024600,0.00010038,-0.00007851,0.00016424,-0.0000
 5973,0.00001601,-0.00000253,-0.00001924,0.00028610,-0.00025135,-0.0000
 1413,0.00011875,0.00008732,0.00011449,-0.00013158,0.00002300,-0.000028
 92,-0.00027312,-0.00063317,-0.00004812,-0.00000121,-0.00010968,0.00009
 715,-0.00057878,0.00028514,-0.00091526,0.00018081,-0.00069813,0.001230
 56,-0.00066929,0.00104319,0.00197388,0.00025514,0.00053632,0.00016444,
 0.00018251,0.00037622,-0.00129160,-0.00192574,-0.00022500,0.00011832,0
 .00048910,-0.00015466,0.00010911,-0.00004438,-0.00022253,0.00012257,0.
 00002597,-0.00001509,0.00005846,-0.00003113,-0.00012057,0.00006226,0.0
 0002257,0.00024886,-0.00017479,0.00003314,0.00001828,0.00002750,0.0000
 6048,-0.00005121,-0.00000908,-0.00030085,-0.00002756,-0.00001732,0.000
 10573,0.00004358,0.00003029,0.00019182,0.00006735,0.00005048,0.0075257
 0,-0.00904816,-0.03171580,-0.15534369,-0.08244293,-0.30827657,0.004497
 68,0.00617150,0.00155079,0.00410238,-0.00267765,0.00244027,0.14570193,
 -0.00000382,0.00003348,0.00002127,-0.00001526,-0.00000552,0.00000914,0
 .00002891,0.00001193,-0.00000134,0.00003617,0.00002359,-0.00000950,0.0
 0002374,0.00002588,0.00001988,-0.00004861,0.00007220,-0.00005752,-0.00
 003870,-0.00000698,0.00000744,-0.00004681,-0.00004407,0.00000989,0.000
 15918,0.00007070,-0.00004348,0.00010498,0.00002574,0.00003093,-0.00002
 342,0.00000408,-0.00000037,0.00005518,-0.00000785,-0.00005555,0.000110
 37,0.00002079,-0.00012221,-0.00001003,0.00000709,-0.00002482,-0.000021
 90,-0.00000487,0.00007195,-0.00004387,-0.00001442,-0.00002514,0.000011
 40,0.00001999,-0.00006380,0.00009902,-0.00015886,0.00017375,-0.0000197
 9,-0.00001828,-0.00003941,-0.00002875,0.00003346,-0.00003881,0.0000387
 3,-0.00020961,0.00008727,-0.00006725,0.00013970,-0.00005093,0.00001027
 ,-0.00000022,-0.00001532,0.00013460,0.00034416,0.00023508,0.00013325,0
 .00009226,-0.00006465,-0.00002946,-0.00002935,0.00005075,-0.00012691,-
 0.00008587,-0.00014458,0.00006491,-0.00003968,-0.00016344,-0.00053839,
 0.00056109,-0.00035635,0.00024425,-0.00028252,0.00072589,0.00039620,-0
 .00260561,0.00071709,-0.00019194,0.00003380,0.00022114,0.00025699,0.00
 016520,-0.00084393,-0.00144058,0.00051713,0.00180633,0.00028174,-0.000
 03451,-0.00000408,-0.00020765,-0.00035518,0.00009629,0.00003847,0.0000
 2109,0.00006802,-0.00000888,-0.00012803,0.00005393,0.00004932,0.000347
 28,-0.00018181,0.00001946,0.00001052,0.00000196,0.00004789,-0.00005214
 ,0.00000403,-0.00027106,-0.00003137,0.00000142,0.00010466,0.00005838,0
 .00001626,0.00016162,0.00005399,0.00004414,-0.00706713,0.01357924,-0.0
 2137517,-0.08255025,-0.09655670,-0.21963642,0.00424249,0.00475140,0.00
 318864,0.00041841,-0.00274714,-0.00222686,0.08852470,0.08312221,-0.000
 04028,0.00011201,0.00011457,-0.00006305,-0.00003458,0.00001023,0.00009
 579,0.00004658,-0.00002564,0.00012958,0.00009710,-0.00005936,0.0000820
 6,0.00007804,0.00006632,-0.00020944,0.00025100,0.00000359,-0.00010535,
 0.00000751,-0.00000918,-0.00019257,-0.00022214,0.00005914,0.00064804,0
 .00036007,-0.00015855,0.00017461,0.00031596,-0.00011369,-0.00008434,-0
 .00001821,0.00002088,0.00010370,-0.00004422,-0.00025434,0.00033315,0.0
 0030686,-0.00051366,-0.00002814,0.00003880,-0.00009254,-0.00001245,0.0
 0006978,0.00015905,-0.00010124,-0.00003081,-0.00002717,-0.00021326,0.0
 0007401,-0.00006405,0.00027691,-0.00046312,0.00051255,-0.00006837,-0.0
 0004539,-0.00014365,-0.00006819,0.00008016,-0.00017816,0.00014059,-0.0
 0073978,0.00029691,-0.00023764,0.00049708,-0.00018061,0.00003063,-0.00
 000107,-0.00005864,0.00052688,-0.00038404,0.00058266,0.00022719,0.0001
 8817,-0.00001205,-0.00025842,0.00004084,0.00007387,-0.00071243,-0.0005
 7393,-0.00052582,-0.00013461,0.00005768,-0.00022633,-0.00073489,0.0009
 0849,-0.00140224,0.00014663,-0.00085517,0.00086340,0.00244905,0.000762
 88,0.00436930,0.00045165,0.00074824,0.00072790,0.00090951,0.00087513,-
 0.00350348,-0.00538000,0.00125513,0.00432313,0.00139415,-0.00026711,0.
 00019840,-0.00023401,-0.00085359,0.00041693,0.00002597,-0.00002482,0.0
 0018868,-0.00002791,-0.00041781,0.00013269,-0.00002300,0.00086491,-0.0
 0054199,0.00009942,0.00005124,0.00004845,0.00017683,-0.00015072,-0.000
 00717,-0.00088984,-0.00010779,0.00000930,0.00031082,0.00013543,0.00007
 521,0.00056103,0.00019446,0.00015019,-0.02805921,-0.02259743,-0.042526
 01,-0.30825225,-0.22010697,-0.87951792,0.00603633,0.01066486,-0.009936
 72,0.00718053,-0.00676845,-0.00214860,0.33410745,0.23724944,0.92270337
 ,0.00000727,-0.00004939,-0.00004306,0.00001435,0.00002357,-0.00000619,
 -0.00003850,-0.00004808,0.00003846,-0.00005758,-0.00004149,0.00001941,
 -0.00003377,-0.00004427,-0.00003720,0.00008158,-0.00004579,-0.00002303
 ,0.00005403,0.00000681,-0.00002454,0.00007959,0.00008516,-0.00002860,-
 0.00023882,-0.00011854,0.00005418,-0.00008555,-0.00013907,0.00004693,0
 .00002892,0.00000619,-0.00002679,-0.00005609,-0.00001628,0.00009922,-0
 .00017658,-0.00016012,0.00029286,0.00002340,-0.00003072,0.00007692,0.0
 0005498,-0.00005138,-0.00000496,0.00006141,0.00001848,0.00003285,0.000
 06022,-0.00001415,0.00003241,-0.00014227,0.00024331,-0.00030194,0.0000
 4551,0.00003173,0.00010923,0.00003573,-0.00005511,0.00011674,-0.000109
 62,0.00045479,-0.00017939,0.00015179,-0.00031818,0.00011459,-0.0000015
 6,-0.00000858,0.00004134,-0.00014092,0.00000333,-0.00010692,-0.0000883
 1,-0.00000637,0.00010254,0.00009711,-0.00001953,-0.00004078,0.00023678
 ,0.00041895,0.00009823,0.00007060,0.00009547,0.00001230,0.00046377,-0.
 00053797,0.00095497,-0.00078820,0.00060857,-0.00013170,0.00007996,-0.0
 0037247,-0.00247351,-0.00007395,-0.00018333,-0.00035001,-0.00063746,-0
 .00091778,0.00128894,0.00321810,0.00027860,-0.00165089,-0.00058861,0.0
 0024696,-0.00013578,0.00035633,0.00039265,-0.00015079,-0.00002183,0.00
 001316,-0.00010667,-0.00002947,0.00018601,-0.00006565,-0.00000350,-0.0
 0043879,0.00026311,-0.00004895,-0.00004039,-0.00001299,-0.00010523,0.0
 0005990,0.00000792,0.00049836,0.00008070,-0.00007093,-0.00016855,-0.00
 006702,-0.00002955,-0.00031386,-0.00011031,-0.00008930,-0.00615726,-0.
 03478175,0.01613648,0.00439750,0.00293191,0.00617728,-0.34169201,-0.39
 352369,0.20977276,-0.00949034,0.00176828,0.00380639,-0.00225037,-0.001
 84281,-0.00468739,0.34844859,-0.00000421,-0.00004934,-0.00003969,0.000
 01260,0.00002240,-0.00000559,-0.00003127,-0.00007705,0.00007386,-0.000
 07187,-0.00004188,0.00001797,-0.00003889,-0.00005266,-0.00004296,0.000
 06300,-0.00001701,-0.00011654,0.00004965,0.00001007,-0.00003192,0.0001
 0916,0.00011555,-0.00004351,-0.00027843,-0.00017405,0.00004786,-0.0001
 0839,-0.00018688,0.00011298,0.00003869,0.00000617,-0.00002933,-0.00006
 910,-0.00003583,0.00014582,-0.00023370,-0.00033429,0.00041264,0.000028
 94,-0.00004368,0.00009790,0.00009118,-0.00006952,0.00003745,0.00006207
 ,0.00001797,0.00003073,0.00005447,0.00005862,-0.00004574,-0.00014064,0
 .00028457,-0.00036983,0.00006307,0.00004114,0.00014774,0.00004238,-0.0
 0006528,0.00018016,-0.00015049,0.00058941,-0.00022193,0.00019856,-0.00
 041661,0.00014996,0.00000677,-0.00001450,0.00005380,-0.00004757,-0.000
 28679,0.00019025,0.00009811,-0.00006585,-0.00004351,0.00011787,-0.0000
 2716,-0.00008461,0.00014362,0.00051107,0.00000477,-0.00004558,0.000026
 98,0.00001199,0.00049268,-0.00050551,0.00094992,-0.00109627,0.00037763
 ,0.00010952,0.00051329,0.00038886,-0.00302352,0.00005383,-0.00035524,-
 0.00025061,0.00061344,0.00000788,0.00091292,0.00243545,-0.00110866,-0.
 00151238,-0.00142062,0.00028103,-0.00025458,0.00021131,0.00078322,-0.0
 0001269,-0.00001128,0.00000251,-0.00018414,0.00003092,0.00022305,-0.00
 006851,0.00009555,-0.00052713,0.00033011,-0.00008360,-0.00005546,-0.00
 001832,-0.00014734,0.00007321,0.00000686,0.00064006,0.00011617,-0.0001
 1075,-0.00020846,-0.00007043,-0.00003990,-0.00041326,-0.00014625,-0.00
 011674,-0.03955891,-0.03408252,0.02635825,0.00559501,0.00374247,0.0095
 1101,-0.39306020,-0.56316207,0.27540153,-0.00533915,0.01080075,-0.0007
 5970,-0.00309987,-0.00223702,-0.00674349,0.42911547,0.59164333,0.00000
 351,0.00002666,0.00001590,-0.00000715,-0.00001168,0.00000102,0.0000138
 4,0.00003877,-0.00003833,0.00003184,0.00002006,-0.00000848,0.00001956,
 0.00002635,0.00002267,-0.00003059,-0.00000067,0.00007912,-0.00002466,-
 0.00000495,0.00001921,-0.00005185,-0.00005883,0.00001461,0.00015111,0.
 00007088,-0.00001854,0.00004081,0.00010817,-0.00004562,-0.00001012,-0.
 00002070,0.00000631,0.00002607,0.00001528,-0.00009351,0.00010477,0.000
 18521,-0.00022970,-0.00001201,0.00002251,-0.00004864,-0.00007771,0.000
 05910,-0.00003834,-0.00001967,-0.00001029,-0.00001177,0.00000240,-0.00
 003318,0.00001869,0.00006385,-0.00014057,0.00017369,-0.00003034,-0.000
 02152,-0.00007453,-0.00001833,0.00003220,-0.00009302,0.00007566,-0.000
 30039,0.00011380,-0.00010117,0.00021243,-0.00007661,-0.00000305,0.0000
 0667,-0.00002677,-0.00012493,0.00013255,-0.00002818,0.00000659,-0.0000
 7916,0.00000434,-0.00004737,0.00002611,0.00004634,0.00001117,-0.000223
 01,0.00014594,0.00001636,-0.00006977,-0.00017084,-0.00023745,0.0001041
 3,-0.00032669,0.00116014,0.00049875,-0.00060975,-0.00058908,-0.0009891
 2,0.00253063,-0.00016985,0.00019386,0.00018379,-0.00016966,0.00023202,
 -0.00072996,-0.00187821,0.00070287,0.00108056,0.00080271,-0.00018603,0
 .00013113,-0.00014375,-0.00033180,0.00000539,-0.00001853,-0.00001091,0
 .00009085,0.00001067,-0.00010838,0.00005775,-0.00006981,0.00021434,-0.
 00016401,0.00004487,0.00002984,0.00001482,0.00007884,-0.00003529,-0.00
 000751,-0.00032000,-0.00005920,0.00005359,0.00009764,0.00003021,0.0000
 2209,0.00020914,0.00007411,0.00005926,0.01374903,0.02001943,0.01089147
 ,0.00213412,0.00387793,-0.00865077,0.20989854,0.27591144,-0.19139029,0
 .00515234,-0.00208198,-0.00162156,0.00048301,-0.00011900,0.00448138,-0
 .22732189,-0.30032184,0.18327996,-0.00013345,0.00001567,0.00002110,-0.
 00003613,-0.00000923,-0.00002670,0.00004809,-0.00012170,0.00014099,-0.
 00008286,-0.00003688,-0.00001376,0.00000107,-0.00005472,-0.00005071,-0
 .00000291,0.00013132,-0.00018520,0.00002353,0.00005783,-0.00006663,0.0
 0009176,0.00009762,-0.00002401,-0.00021862,-0.00013031,-0.00002683,-0.
 00015894,-0.00025757,0.00008211,0.00011085,0.00001983,0.00002598,-0.00
 020739,-0.00019684,0.00016386,-0.00033557,-0.00044959,0.00057331,0.000
 04899,-0.00003257,0.00008797,0.00015560,-0.00002296,0.00002892,0.00010
 059,0.00000157,0.00004578,-0.00003551,0.00005080,-0.00015962,-0.000075
 63,0.00020868,-0.00036764,0.00007875,0.00003850,0.00014501,0.00006230,
 -0.00006481,0.00018042,-0.00025021,0.00062389,-0.00016270,0.00022157,-
 0.00045169,0.00016041,0.00007515,-0.00003829,0.00004260,0.00081413,-0.
 00004161,0.00043372,-0.00010751,-0.00007741,-0.00018028,0.00002975,-0.
 00003175,-0.00017602,0.00012293,0.00039900,-0.00003165,0.00001888,-0.0
 0005899,0.00011138,0.00050497,-0.00045723,0.00080315,-0.00251314,-0.00
 001736,0.00143011,0.00110094,0.00062348,-0.00466778,0.00012233,-0.0010
 2597,-0.00004626,0.00085258,0.00043514,0.00013168,0.00268803,-0.004200
 43,-0.00103590,-0.00147713,0.00027484,-0.00008822,-0.00001294,0.001188
 28,-0.00015680,-0.00004052,0.00001586,-0.00018921,0.00009079,0.0002030
 1,-0.00011979,0.00014551,-0.00065546,0.00039433,-0.00008938,-0.0000372
 0,0.00002709,-0.00015389,0.00007817,-0.00002363,0.00059859,0.00016375,
 -0.00017166,-0.00021975,-0.00009489,-0.00002713,-0.00038588,-0.0001318
 3,-0.00010860,-0.01885034,0.04241829,0.00774119,0.00400282,0.00049759,
 0.00743026,-0.01065223,-0.00532552,0.00486221,-0.57785162,0.48522481,0
 .14657286,-0.00233480,-0.00115369,-0.00580021,0.00497331,0.00468195,-0
 .00291140,0.59914252,0.00011577,-0.00001323,-0.00002578,0.00002409,0.0
 0001337,0.00002057,-0.00004525,0.00011005,-0.00012833,0.00007249,0.000
 03113,0.00000842,-0.00000039,0.00004461,0.00004603,0.00001555,-0.00012
 509,0.00020857,-0.00001732,-0.00005801,0.00005785,-0.00008234,-0.00009
 380,0.00002510,0.00020878,0.00015306,0.00004043,0.00005196,0.00025159,
 -0.00014635,-0.00008228,0.00001541,-0.00001510,0.00017304,0.00014995,-
 0.00019509,0.00027754,0.00045425,-0.00053195,-0.00003866,0.00003067,-0
 .00007813,-0.00016364,0.00007165,-0.00002276,-0.00007057,0.00000052,-0
 .00003532,0.00004639,-0.00009331,0.00009579,0.00004738,-0.00016710,0.0
 0029860,-0.00007034,-0.00003203,-0.00012517,-0.00004876,0.00005154,-0.
 00016971,0.00021998,-0.00056107,0.00014083,-0.00019884,0.00040594,-0.0
 0014452,-0.00006778,0.00003374,-0.00003571,-0.00038805,0.00041232,-0.0
 0027608,0.00010538,-0.00003264,-0.00007482,-0.00006929,0.00005395,0.00
 012626,-0.00005712,-0.00049003,0.00005583,0.00001115,0.00015003,-0.000
 18870,-0.00038431,0.00037525,-0.00072480,0.00215880,-0.00014901,-0.001
 12460,-0.00128523,-0.00040306,0.00441718,-0.00014385,0.00064831,0.0003
 2811,-0.00163727,0.00029109,0.00027085,-0.00368760,0.00030924,0.000110
 36,0.00171991,-0.00037149,0.00059410,-0.00027639,-0.00086143,-0.000005
 83,0.00003708,0.00001122,0.00018490,-0.00005147,-0.00019604,0.00009512
 ,-0.00018895,0.00046066,-0.00030751,0.00008705,0.00003111,-0.00002147,
 0.00015082,-0.00005641,0.00001543,-0.00050905,-0.00015415,0.00015197,0
 .00018072,0.00007463,0.00002729,0.00033838,0.00011557,0.00009407,0.041
 91823,-0.02156376,-0.01054683,-0.00284732,-0.00262013,-0.00653675,0.00
 309517,0.01200557,-0.00307944,0.48477911,-0.47697287,-0.12921952,0.001
 93731,0.00150942,0.00511878,-0.00308664,-0.00591542,0.00234634,-0.5222
 7340,0.49266422,0.00002464,0.00000498,-0.00000046,-0.00000002,0.000002
 49,-0.00000629,0.00000186,0.00002940,-0.00003001,0.00002474,0.00001058
 ,-0.00000438,0.00000750,0.00001387,0.00001768,-0.00000512,-0.00001062,
 0.00004195,-0.00000256,-0.00001013,0.00000170,-0.00002674,-0.00003168,
 -0.00000120,0.00008218,0.00005702,0.00001532,-0.00002346,0.00006636,-0
 .00007699,-0.00002118,0.00000981,0.00002311,0.00004704,0.00002001,-0.0
 0006991,0.00002653,0.00012788,-0.00008934,-0.00000927,0.00000749,-0.00
 001932,-0.00003297,0.00002508,-0.00000060,-0.00000285,0.00001555,0.000
 00415,-0.00002773,-0.00004742,0.00006954,0.00002720,-0.00006820,0.0000
 9173,-0.00001886,-0.00001125,-0.00004340,-0.00001954,0.00001883,-0.000
 05196,0.00006410,-0.00018560,0.00005730,-0.00006397,0.00013161,-0.0000
 4728,-0.00001368,0.00000804,-0.00001288,-0.00023303,0.00024606,0.00018
 626,0.00023701,0.00003720,-0.00008691,-0.00004978,0.00001676,-0.000025
 08,-0.00008689,-0.00018087,-0.00003732,0.00008499,-0.00003297,-0.00011
 288,-0.00006985,0.00015159,-0.00023313,0.00057470,-0.00002912,-0.00040
 929,-0.00123321,0.00088536,0.00230693,-0.00024987,-0.00002248,0.000154
 51,0.00045408,-0.00005709,0.00000534,-0.00162526,-0.00000732,-0.001963
 83,0.00025564,0.00022553,0.00014971,0.00036289,0.00007267,-0.00000862,
 -0.00001431,-0.00006249,0.00002173,-0.00001183,-0.00011965,0.00003125,
 -0.00012618,0.00019280,-0.00012612,0.00003665,0.00001279,-0.00000603,0
 .00005118,-0.00003318,0.00001510,-0.00016706,-0.00004614,0.00004550,0.
 00005275,0.00001541,0.00001317,0.00011246,0.00003973,0.00003094,0.0055
 7007,-0.00813125,0.01866885,0.00232593,-0.00252734,-0.00207909,0.00410
 480,-0.00040025,-0.00189570,0.14607883,-0.12926025,-0.07959614,-0.0000
 5890,0.00075257,0.00163950,-0.00159558,-0.00080368,0.00095909,-0.15481
 809,0.13888151,0.06248379\\-0.00000261,0.00000171,0.00000216,0.0000001
 9,0.00000177,-0.00000016,0.00000022,-0.00000116,0.00000142,0.00000160,
 -0.00000133,-0.00000024,-0.00000160,-0.00000198,0.00000100,0.00000267,
 0.00000118,-0.00000155,-0.00000168,-0.00000084,0.00000033,0.00000223,-
 0.00000067,-0.00000117,0.00000025,0.00000023,0.00000384,-0.00000091,0.
 00000816,0.00000175,-0.00000184,0.00000190,0.00000007,0.00001018,-0.00
 000327,-0.00000253,-0.00000615,-0.00000568,0.00000260,-0.00000039,-0.0
 0000005,-0.00000096,-0.00000202,0.00000235,-0.00000025,-0.00000073,-0.
 00000068,0.00000056,-0.00000322,0.00000002,-0.00000081,0.00000210,0.00
 000453,-0.00000404,0.00000026,-0.00000105,0.00000070,-0.00000007,0.000
 00130,0.00000093,-0.00000056,-0.00000063,-0.00000090,-0.00000028,0.000
 00006,0.00000006,0.00000032,0.00000106,0.00000072,0.00000712,-0.000001
 77,-0.00001771,-0.00000971,-0.00000553,0.00000619,-0.00000305,-0.00000
 299,0.00000102,0.00000278,-0.00001106,-0.00000572,0.00000482,0.0000053
 1,0.00000533,-0.00000654,-0.00000205,0.00000437,-0.00000340,0.00000732
 ,0.00000739,0.00000757,0.00000254,-0.00000057,-0.00000728,-0.00000253,
 0.00000386,0.00000370,-0.00000100,-0.00000432,0.00000010,0.00000403,-0
 .00000128,-0.00000210,-0.00000193,-0.00000471,0.00001937,0.00000993,0.
 00000484,-0.00000168,-0.00000004,-0.00000005,-0.00000432,-0.00000349,0
 .00000147,0.00000143,0.00001231,-0.00000229,0.00000143,-0.00000341,0.0
 0000247,-0.00000033,-0.00000131,0.00000148,0.00000029,-0.00000043,-0.0
 0000130,-0.00000207,-0.00000513,0.00000210,0.00000013,-0.00000055,0.00
 000100,-0.00001439,-0.00000180,0.00000193,0.00001147,-0.00000382,0.000
 00583,0.00000776,0.00000742,-0.00000436,-0.00000349,0.00000312,-0.0000
 0850,-0.00000435,0.00000065,-0.00000458,-0.00000579,-0.00000952,0.0000
 0337,0.00000260,-0.00000116,-0.00000080\\\@
 The archive entry for this job was punched.


 SCIENCE AND PEACE WILL TRIUMPH OVER IGNORANCE AND WAR

                          -- PASTEUR
 Job cpu time:       2 days  9 hours 30 minutes 27.9 seconds.
 Elapsed time:       0 days  1 hours 12 minutes  4.9 seconds.
 File lengths (MBytes):  RWF=   7010 Int=      0 D2E=      0 Chk=     84 Scr=      2
 Normal termination of Gaussian 16 at Sat Dec 24 20:01:46 2022.
