 Entering Gaussian System, Link 0=/apps/GAU16/avx2/g16/g16
 Initial command:
 /apps/GAU16/avx2//g16/l1.exe "/localscratch/chesayan/sagar/Gau-51102.inp" -scrdir="/localscratch/chesayan/sagar/"
 Entering Link 1 = /apps/GAU16/avx2//g16/l1.exe PID=     51105.
  
 Copyright (c) 1988-2019, Gaussian, Inc.  All Rights Reserved.
  
 This is part of the Gaussian(R) 16 program.  It is based on
 the Gaussian(R) 09 system (copyright 2009, Gaussian, Inc.),
 the Gaussian(R) 03 system (copyright 2003, Gaussian, Inc.),
 the Gaussian(R) 98 system (copyright 1998, Gaussian, Inc.),
 the Gaussian(R) 94 system (copyright 1995, Gaussian, Inc.),
 the Gaussian 92(TM) system (copyright 1992, Gaussian, Inc.),
 the Gaussian 90(TM) system (copyright 1990, Gaussian, Inc.),
 the Gaussian 88(TM) system (copyright 1988, Gaussian, Inc.),
 the Gaussian 86(TM) system (copyright 1986, Carnegie Mellon
 University), and the Gaussian 82(TM) system (copyright 1983,
 Carnegie Mellon University). Gaussian is a federally registered
 trademark of Gaussian, Inc.
  
 This software contains proprietary and confidential information,
 including trade secrets, belonging to Gaussian, Inc.
  
 This software is provided under written license and may be
 used, copied, transmitted, or stored only in accord with that
 written license.
  
 The following legend is applicable only to US Government
 contracts under FAR:
  
                    RESTRICTED RIGHTS LEGEND
  
 Use, reproduction and disclosure by the US Government is
 subject to restrictions as set forth in subparagraphs (a)
 and (c) of the Commercial Computer Software - Restricted
 Rights clause in FAR 52.227-19.
  
 Gaussian, Inc.
 340 Quinnipiac St., Bldg. 40, Wallingford CT 06492
  
  
 ---------------------------------------------------------------
 Warning -- This program may not be used in any manner that
 competes with the business of Gaussian, Inc. or will provide
 assistance to any competitor of Gaussian, Inc.  The licensee
 of this program is prohibited from giving any competitor of
 Gaussian, Inc. access to this program.  By using this program,
 the user acknowledges that Gaussian, Inc. is engaged in the
 business of creating and licensing software in the field of
 computational chemistry and represents and warrants to the
 licensee that it is not a competitor of Gaussian, Inc. and that
 it will not use this program in any manner prohibited above.
 ---------------------------------------------------------------
  

 Cite this work as:
 Gaussian 16, Revision C.01,
 M. J. Frisch, G. W. Trucks, H. B. Schlegel, G. E. Scuseria, 
 M. A. Robb, J. R. Cheeseman, G. Scalmani, V. Barone, 
 G. A. Petersson, H. Nakatsuji, X. Li, M. Caricato, A. V. Marenich, 
 J. Bloino, B. G. Janesko, R. Gomperts, B. Mennucci, H. P. Hratchian, 
 J. V. Ortiz, A. F. Izmaylov, J. L. Sonnenberg, D. Williams-Young, 
 F. Ding, F. Lipparini, F. Egidi, J. Goings, B. Peng, A. Petrone, 
 T. Henderson, D. Ranasinghe, V. G. Zakrzewski, J. Gao, N. Rega, 
 G. Zheng, W. Liang, M. Hada, M. Ehara, K. Toyota, R. Fukuda, 
 J. Hasegawa, M. Ishida, T. Nakajima, Y. Honda, O. Kitao, H. Nakai, 
 T. Vreven, K. Throssell, J. A. Montgomery, Jr., J. E. Peralta, 
 F. Ogliaro, M. J. Bearpark, J. J. Heyd, E. N. Brothers, K. N. Kudin, 
 V. N. Staroverov, T. A. Keith, R. Kobayashi, J. Normand, 
 K. Raghavachari, A. P. Rendell, J. C. Burant, S. S. Iyengar, 
 J. Tomasi, M. Cossi, J. M. Millam, M. Klene, C. Adamo, R. Cammi, 
 J. W. Ochterski, R. L. Martin, K. Morokuma, O. Farkas, 
 J. B. Foresman, and D. J. Fox, Gaussian, Inc., Wallingford CT, 2019.
 
 ******************************************
 Gaussian 16:  ES64L-G16RevC.01  3-Jul-2019
                25-Dec-2022 
 ******************************************
 %nprocshared=48
 Will use up to   48 processors via shared memory.
 %mem=100GB
 ---------------------------------------------------------
 # opt freq b3lyp/gen nosymm pseudo=read scf=maxcycles=500
 ---------------------------------------------------------
 1/18=20,19=15,26=3,38=1/1,3;
 2/9=110,12=2,15=1,17=6,18=5,40=1/2;
 3/5=7,11=2,16=1,17=8,25=1,30=1,71=1,74=-5/1,2,3;
 4//1;
 5/5=2,7=500,38=5/2;
 6/7=2,8=2,9=2,10=2,28=1/1;
 7/30=1/1,2,3,16;
 1/18=20,19=15,26=3/3(2);
 2/9=110,15=1/2;
 99//99;
 2/9=110,15=1/2;
 3/5=7,6=1,11=2,16=1,17=8,25=1,30=1,71=1,74=-5,82=7/1,2,3;
 4/5=5,16=3,69=1/1;
 5/5=2,7=500,38=5/2;
 7/30=1/1,2,3,16;
 1/18=20,19=15,26=3/3(-5);
 2/9=110,15=1/2;
 6/7=2,8=2,9=2,10=2,19=2,28=1/1;
 99/9=1/99;
 -------------------
 Title Card Required
 -------------------
 Symbolic Z-matrix:
 Charge =  0 Multiplicity = 1
 42                    0.67429   1.32556   12.16982 
 16                    1.47025   3.49136   12.7067 
 16                   -1.55498   1.45171   12.90781 
 16                   -0.09411   1.01564   9.94588 
 16                    2.63273  -0.03516   11.47696 
 42                   -1.94972   2.41526   10.69625 
 16                   -2.45537   2.19352   8.38599 
 16                   -1.1329    4.50764   10.85752 
 42                    0.99434   3.21011   10.31352 
 16                    0.3375    3.72367   7.94558 
 16                    2.98336   2.25914   9.29728 
 42                    3.31955   2.46323   11.68463 
 42                   -1.97724   4.57085   8.44861 
 16                    4.45302   1.97253   13.88858 
 16                    4.84972   4.23792   11.67514 
 16                   -3.89519   5.77958   9.40696 
 16                   -0.72778   6.78307   8.65732 
 42                   -4.29201   3.41558   9.34172 
 16                   -6.77691   4.29747   9.94095 
 16                   -4.20907   2.63852   11.4857 
 42                    3.13197   0.17791   13.72177 
 16                    4.0246   -1.55492   14.55695 
 16                    1.15085   0.59703   14.6224 
 42                    1.46742   5.97036   7.65321 
 16                    0.68498   5.77319   5.35678 
 16                    1.77278   5.673     10.27263 
 42                    3.59584   4.52322   9.73182 
 16                    3.47642   4.61069   7.21909 
 16                    5.1544    6.58196   9.56795 
 42                    4.18323   6.8057    7.59944 
 16                    5.50235   7.45116   5.99585 
 16                    2.33336   8.2861    7.8823 
 42                    1.38037   7.98362   5.71246 
 16                    2.76572   8.56498   4.13895 
 16                   -0.57537   9.01653   5.74204 
 42                   -1.33451   6.681     6.4974 
 16                   -2.25378   4.51569   6.0283 
 16                   -3.40968   7.93457   6.56534 
 42                   -3.98214   5.82912   7.02695 
 16                   -5.82301   5.15232   5.50065 
 16                   -6.51147   6.41683   7.04069 
 42                   -6.90384   4.1083    7.76661 
 16                   -5.37863   2.38422   7.47054 
 16                   -8.85295   3.5095    7.24031 
 42                    4.82334   7.31618   3.62003 
 6                     5.91541   8.71821   2.83003 
 6                     6.32105   6.00328   3.26446 
 8                     6.56039   9.57203   2.37892 
 8                     7.16078   5.24243   3.0401 
 

 GradGradGradGradGradGradGradGradGradGradGradGradGradGradGradGradGradGrad
 Berny optimization.
 Initialization pass.
                           ----------------------------
                           !    Initial Parameters    !
                           ! (Angstroms and Degrees)  !
 --------------------------                            --------------------------
 ! Name  Definition              Value          Derivative Info.                !
 --------------------------------------------------------------------------------
 ! R1    R(1,2)                  2.3691         estimate D2E/DX2                !
 ! R2    R(1,3)                  2.3516         estimate D2E/DX2                !
 ! R3    R(1,4)                  2.3733         estimate D2E/DX2                !
 ! R4    R(1,5)                  2.4834         estimate D2E/DX2                !
 ! R5    R(1,9)                  2.6645         estimate D2E/DX2                !
 ! R6    R(1,12)                 2.9201         estimate D2E/DX2                !
 ! R7    R(1,23)                 2.6025         estimate D2E/DX2                !
 ! R8    R(2,9)                  2.4562         estimate D2E/DX2                !
 ! R9    R(2,12)                 2.3498         estimate D2E/DX2                !
 ! R10   R(3,6)                  2.4444         estimate D2E/DX2                !
 ! R11   R(4,6)                  2.4424         estimate D2E/DX2                !
 ! R12   R(4,9)                  2.477          estimate D2E/DX2                !
 ! R13   R(5,12)                 2.5994         estimate D2E/DX2                !
 ! R14   R(5,21)                 2.3095         estimate D2E/DX2                !
 ! R15   R(6,7)                  2.3753         estimate D2E/DX2                !
 ! R16   R(6,8)                  2.2519         estimate D2E/DX2                !
 ! R17   R(6,9)                  3.0734         estimate D2E/DX2                !
 ! R18   R(6,13)                 3.1144         estimate D2E/DX2                !
 ! R19   R(6,18)                 2.8847         estimate D2E/DX2                !
 ! R20   R(6,20)                 2.4037         estimate D2E/DX2                !
 ! R21   R(7,13)                 2.4257         estimate D2E/DX2                !
 ! R22   R(7,18)                 2.4042         estimate D2E/DX2                !
 ! R23   R(8,9)                  2.5504         estimate D2E/DX2                !
 ! R24   R(8,13)                 2.5534         estimate D2E/DX2                !
 ! R25   R(9,10)                 2.5105         estimate D2E/DX2                !
 ! R26   R(9,11)                 2.4276         estimate D2E/DX2                !
 ! R27   R(9,12)                 2.8008         estimate D2E/DX2                !
 ! R28   R(9,26)                 2.5833         estimate D2E/DX2                !
 ! R29   R(9,27)                 2.9716         estimate D2E/DX2                !
 ! R30   R(10,13)                2.5157         estimate D2E/DX2                !
 ! R31   R(10,24)                2.5318         estimate D2E/DX2                !
 ! R32   R(11,12)                2.4195         estimate D2E/DX2                !
 ! R33   R(11,27)                2.3854         estimate D2E/DX2                !
 ! R34   R(12,14)                2.5264         estimate D2E/DX2                !
 ! R35   R(12,15)                2.3433         estimate D2E/DX2                !
 ! R36   R(12,21)                3.0672         estimate D2E/DX2                !
 ! R37   R(12,27)                2.8519         estimate D2E/DX2                !
 ! R38   R(13,16)                2.4613         estimate D2E/DX2                !
 ! R39   R(13,17)                2.5492         estimate D2E/DX2                !
 ! R40   R(13,18)                2.7369         estimate D2E/DX2                !
 ! R41   R(13,36)                2.945          estimate D2E/DX2                !
 ! R42   R(13,37)                2.4367         estimate D2E/DX2                !
 ! R43   R(13,39)                2.7612         estimate D2E/DX2                !
 ! R44   R(14,21)                2.2347         estimate D2E/DX2                !
 ! R45   R(15,27)                2.3303         estimate D2E/DX2                !
 ! R46   R(16,18)                2.398          estimate D2E/DX2                !
 ! R47   R(16,39)                2.3821         estimate D2E/DX2                !
 ! R48   R(17,24)                2.5471         estimate D2E/DX2                !
 ! R49   R(17,36)                2.2458         estimate D2E/DX2                !
 ! R50   R(18,19)                2.704          estimate D2E/DX2                !
 ! R51   R(18,20)                2.282          estimate D2E/DX2                !
 ! R52   R(18,43)                2.397          estimate D2E/DX2                !
 ! R53   R(19,42)                2.1862         estimate D2E/DX2                !
 ! R54   R(21,22)                2.1206         estimate D2E/DX2                !
 ! R55   R(21,23)                2.2162         estimate D2E/DX2                !
 ! R56   R(24,25)                2.4341         estimate D2E/DX2                !
 ! R57   R(24,26)                2.6539         estimate D2E/DX2                !
 ! R58   R(24,28)                2.4644         estimate D2E/DX2                !
 ! R59   R(24,30)                2.8419         estimate D2E/DX2                !
 ! R60   R(24,32)                2.4829         estimate D2E/DX2                !
 ! R61   R(24,33)                2.7977         estimate D2E/DX2                !
 ! R62   R(24,36)                3.1131         estimate D2E/DX2                !
 ! R63   R(25,33)                2.3444         estimate D2E/DX2                !
 ! R64   R(25,36)                2.4907         estimate D2E/DX2                !
 ! R65   R(26,27)                2.2222         estimate D2E/DX2                !
 ! R66   R(27,28)                2.5171         estimate D2E/DX2                !
 ! R67   R(27,29)                2.5874         estimate D2E/DX2                !
 ! R68   R(28,30)                2.3372         estimate D2E/DX2                !
 ! R69   R(29,30)                2.2064         estimate D2E/DX2                !
 ! R70   R(30,31)                2.1744         estimate D2E/DX2                !
 ! R71   R(30,32)                2.3861         estimate D2E/DX2                !
 ! R72   R(31,45)                2.4746         estimate D2E/DX2                !
 ! R73   R(32,33)                2.3891         estimate D2E/DX2                !
 ! R74   R(33,34)                2.1756         estimate D2E/DX2                !
 ! R75   R(33,35)                2.2119         estimate D2E/DX2                !
 ! R76   R(33,36)                3.1118         estimate D2E/DX2                !
 ! R77   R(34,45)                2.4622         estimate D2E/DX2                !
 ! R78   R(35,36)                2.5693         estimate D2E/DX2                !
 ! R79   R(36,37)                2.3987         estimate D2E/DX2                !
 ! R80   R(36,38)                2.4254         estimate D2E/DX2                !
 ! R81   R(36,39)                2.8313         estimate D2E/DX2                !
 ! R82   R(37,39)                2.3895         estimate D2E/DX2                !
 ! R83   R(38,39)                2.2302         estimate D2E/DX2                !
 ! R84   R(39,40)                2.4852         estimate D2E/DX2                !
 ! R85   R(39,41)                2.5967         estimate D2E/DX2                !
 ! R86   R(40,41)                2.1082         estimate D2E/DX2                !
 ! R87   R(40,42)                2.719          estimate D2E/DX2                !
 ! R88   R(41,42)                2.4516         estimate D2E/DX2                !
 ! R89   R(42,43)                2.3209         estimate D2E/DX2                !
 ! R90   R(42,44)                2.1058         estimate D2E/DX2                !
 ! R91   R(45,46)                1.9448         estimate D2E/DX2                !
 ! R92   R(45,47)                2.0232         estimate D2E/DX2                !
 ! R93   R(46,48)                1.1613         estimate D2E/DX2                !
 ! R94   R(47,49)                1.1551         estimate D2E/DX2                !
 ! A1    A(2,1,3)              101.4399         estimate D2E/DX2                !
 ! A2    A(2,1,4)              116.1376         estimate D2E/DX2                !
 ! A3    A(2,1,5)              107.4089         estimate D2E/DX2                !
 ! A4    A(2,1,23)              88.9014         estimate D2E/DX2                !
 ! A5    A(3,1,4)               89.6647         estimate D2E/DX2                !
 ! A6    A(3,1,5)              149.8297         estimate D2E/DX2                !
 ! A7    A(3,1,9)              107.1305         estimate D2E/DX2                !
 ! A8    A(3,1,12)             152.871          estimate D2E/DX2                !
 ! A9    A(3,1,23)              83.8497         estimate D2E/DX2                !
 ! A10   A(4,1,5)               85.5456         estimate D2E/DX2                !
 ! A11   A(4,1,12)             100.8638         estimate D2E/DX2                !
 ! A12   A(4,1,23)             154.935          estimate D2E/DX2                !
 ! A13   A(5,1,9)               95.6494         estimate D2E/DX2                !
 ! A14   A(5,1,23)              88.002          estimate D2E/DX2                !
 ! A15   A(9,1,23)             146.3595         estimate D2E/DX2                !
 ! A16   A(12,1,23)             95.7258         estimate D2E/DX2                !
 ! A17   A(1,3,6)               83.7024         estimate D2E/DX2                !
 ! A18   A(1,4,6)               83.2959         estimate D2E/DX2                !
 ! A19   A(1,5,21)              81.2997         estimate D2E/DX2                !
 ! A20   A(3,6,4)               85.9506         estimate D2E/DX2                !
 ! A21   A(3,6,7)              151.3459         estimate D2E/DX2                !
 ! A22   A(3,6,8)              104.057          estimate D2E/DX2                !
 ! A23   A(3,6,9)               93.4352         estimate D2E/DX2                !
 ! A24   A(3,6,13)             158.0035         estimate D2E/DX2                !
 ! A25   A(3,6,18)             133.8383         estimate D2E/DX2                !
 ! A26   A(3,6,20)              83.7572         estimate D2E/DX2                !
 ! A27   A(4,6,7)               79.0136         estimate D2E/DX2                !
 ! A28   A(4,6,8)              106.193          estimate D2E/DX2                !
 ! A29   A(4,6,13)             100.4642         estimate D2E/DX2                !
 ! A30   A(4,6,18)             132.1707         estimate D2E/DX2                !
 ! A31   A(4,6,20)             150.257          estimate D2E/DX2                !
 ! A32   A(7,6,8)              103.5093         estimate D2E/DX2                !
 ! A33   A(7,6,9)               96.1391         estimate D2E/DX2                !
 ! A34   A(7,6,20)              97.3549         estimate D2E/DX2                !
 ! A35   A(8,6,18)              90.3407         estimate D2E/DX2                !
 ! A36   A(8,6,20)             103.3626         estimate D2E/DX2                !
 ! A37   A(9,6,13)              74.9054         estimate D2E/DX2                !
 ! A38   A(9,6,18)             129.0234         estimate D2E/DX2                !
 ! A39   A(9,6,20)             156.5305         estimate D2E/DX2                !
 ! A40   A(13,6,20)             99.4645         estimate D2E/DX2                !
 ! A41   A(9,8,13)              95.001          estimate D2E/DX2                !
 ! A42   A(1,9,6)               67.3731         estimate D2E/DX2                !
 ! A43   A(1,9,8)               96.3755         estimate D2E/DX2                !
 ! A44   A(1,9,10)             140.3881         estimate D2E/DX2                !
 ! A45   A(1,9,11)              96.488          estimate D2E/DX2                !
 ! A46   A(1,9,26)             136.1804         estimate D2E/DX2                !
 ! A47   A(1,9,27)             123.6461         estimate D2E/DX2                !
 ! A48   A(2,9,4)              109.3417         estimate D2E/DX2                !
 ! A49   A(2,9,6)               95.3872         estimate D2E/DX2                !
 ! A50   A(2,9,8)               84.0034         estimate D2E/DX2                !
 ! A51   A(2,9,10)             161.1393         estimate D2E/DX2                !
 ! A52   A(2,9,11)             107.0965         estimate D2E/DX2                !
 ! A53   A(2,9,26)              81.2496         estimate D2E/DX2                !
 ! A54   A(2,9,27)              88.3099         estimate D2E/DX2                !
 ! A55   A(4,9,8)               96.6537         estimate D2E/DX2                !
 ! A56   A(4,9,10)              85.7716         estimate D2E/DX2                !
 ! A57   A(4,9,11)              87.183          estimate D2E/DX2                !
 ! A58   A(4,9,12)             101.6082         estimate D2E/DX2                !
 ! A59   A(4,9,27)             138.3416         estimate D2E/DX2                !
 ! A60   A(6,9,10)              85.3961         estimate D2E/DX2                !
 ! A61   A(6,9,11)             137.3642         estimate D2E/DX2                !
 ! A62   A(6,9,12)             131.7081         estimate D2E/DX2                !
 ! A63   A(6,9,26)             122.4926         estimate D2E/DX2                !
 ! A64   A(8,9,10)              83.0435         estimate D2E/DX2                !
 ! A65   A(8,9,12)             136.3607         estimate D2E/DX2                !
 ! A66   A(8,9,26)              76.6837         estimate D2E/DX2                !
 ! A67   A(8,9,27)             123.1706         estimate D2E/DX2                !
 ! A68   A(10,9,11)             84.2407         estimate D2E/DX2                !
 ! A69   A(10,9,12)            137.1827         estimate D2E/DX2                !
 ! A70   A(10,9,26)             82.4654         estimate D2E/DX2                !
 ! A71   A(10,9,27)             87.3644         estimate D2E/DX2                !
 ! A72   A(11,9,26)             96.8892         estimate D2E/DX2                !
 ! A73   A(12,9,26)             90.6773         estimate D2E/DX2                !
 ! A74   A(9,10,13)             96.9512         estimate D2E/DX2                !
 ! A75   A(9,10,24)            100.0025         estimate D2E/DX2                !
 ! A76   A(13,10,24)            97.7527         estimate D2E/DX2                !
 ! A77   A(1,12,11)             90.2986         estimate D2E/DX2                !
 ! A78   A(1,12,14)            100.7076         estimate D2E/DX2                !
 ! A79   A(1,12,15)            152.532          estimate D2E/DX2                !
 ! A80   A(1,12,21)             62.8684         estimate D2E/DX2                !
 ! A81   A(1,12,27)            118.878          estimate D2E/DX2                !
 ! A82   A(2,12,5)             104.3203         estimate D2E/DX2                !
 ! A83   A(2,12,11)            110.8994         estimate D2E/DX2                !
 ! A84   A(2,12,14)             93.3607         estimate D2E/DX2                !
 ! A85   A(2,12,15)            100.6207         estimate D2E/DX2                !
 ! A86   A(2,12,21)             89.3687         estimate D2E/DX2                !
 ! A87   A(2,12,27)             93.3271         estimate D2E/DX2                !
 ! A88   A(5,12,9)              89.876          estimate D2E/DX2                !
 ! A89   A(5,12,11)             78.6608         estimate D2E/DX2                !
 ! A90   A(5,12,14)             90.0893         estimate D2E/DX2                !
 ! A91   A(5,12,15)            154.176          estimate D2E/DX2                !
 ! A92   A(5,12,27)            131.6936         estimate D2E/DX2                !
 ! A93   A(9,12,14)            148.3545         estimate D2E/DX2                !
 ! A94   A(9,12,15)            109.7659         estimate D2E/DX2                !
 ! A95   A(9,12,21)            118.2327         estimate D2E/DX2                !
 ! A96   A(11,12,14)           155.0541         estimate D2E/DX2                !
 ! A97   A(11,12,15)            98.6627         estimate D2E/DX2                !
 ! A98   A(11,12,21)           125.7315         estimate D2E/DX2                !
 ! A99   A(14,12,15)            81.8173         estimate D2E/DX2                !
 ! A100  A(14,12,27)           133.9605         estimate D2E/DX2                !
 ! A101  A(15,12,21)           127.3665         estimate D2E/DX2                !
 ! A102  A(6,13,10)             84.4392         estimate D2E/DX2                !
 ! A103  A(6,13,16)             93.7721         estimate D2E/DX2                !
 ! A104  A(6,13,17)            122.4951         estimate D2E/DX2                !
 ! A105  A(6,13,37)            134.6029         estimate D2E/DX2                !
 ! A106  A(6,13,39)            133.9013         estimate D2E/DX2                !
 ! A107  A(7,13,8)              93.7424         estimate D2E/DX2                !
 ! A108  A(7,13,10)             81.1506         estimate D2E/DX2                !
 ! A109  A(7,13,16)            109.74           estimate D2E/DX2                !
 ! A110  A(7,13,17)            161.6585         estimate D2E/DX2                !
 ! A111  A(7,13,36)            136.73           estimate D2E/DX2                !
 ! A112  A(7,13,37)             85.9748         estimate D2E/DX2                !
 ! A113  A(7,13,39)            106.8697         estimate D2E/DX2                !
 ! A114  A(8,13,10)             82.8799         estimate D2E/DX2                !
 ! A115  A(8,13,16)             84.4045         estimate D2E/DX2                !
 ! A116  A(8,13,17)             77.4185         estimate D2E/DX2                !
 ! A117  A(8,13,18)             87.7858         estimate D2E/DX2                !
 ! A118  A(8,13,36)            124.7944         estimate D2E/DX2                !
 ! A119  A(8,13,39)            137.4878         estimate D2E/DX2                !
 ! A120  A(10,13,16)           163.7868         estimate D2E/DX2                !
 ! A121  A(10,13,17)            81.815          estimate D2E/DX2                !
 ! A122  A(10,13,18)           134.5322         estimate D2E/DX2                !
 ! A123  A(10,13,36)            84.7214         estimate D2E/DX2                !
 ! A124  A(10,13,37)            84.1564         estimate D2E/DX2                !
 ! A125  A(10,13,39)           135.9398         estimate D2E/DX2                !
 ! A126  A(16,13,17)            85.6346         estimate D2E/DX2                !
 ! A127  A(16,13,36)            94.3679         estimate D2E/DX2                !
 ! A128  A(16,13,37)           108.0249         estimate D2E/DX2                !
 ! A129  A(17,13,18)           138.9496         estimate D2E/DX2                !
 ! A130  A(17,13,37)            99.0089         estimate D2E/DX2                !
 ! A131  A(17,13,39)            90.148          estimate D2E/DX2                !
 ! A132  A(18,13,36)           134.6877         estimate D2E/DX2                !
 ! A133  A(18,13,37)           102.6261         estimate D2E/DX2                !
 ! A134  A(18,13,39)            75.3007         estimate D2E/DX2                !
 ! A135  A(18,16,39)            89.271          estimate D2E/DX2                !
 ! A136  A(13,17,24)            96.5028         estimate D2E/DX2                !
 ! A137  A(6,18,16)            101.2278         estimate D2E/DX2                !
 ! A138  A(6,18,19)            139.0437         estimate D2E/DX2                !
 ! A139  A(6,18,43)            125.8327         estimate D2E/DX2                !
 ! A140  A(7,18,16)            112.675          estimate D2E/DX2                !
 ! A141  A(7,18,19)            162.9241         estimate D2E/DX2                !
 ! A142  A(7,18,20)             99.9413         estimate D2E/DX2                !
 ! A143  A(7,18,43)             79.4718         estimate D2E/DX2                !
 ! A144  A(13,18,19)           135.3889         estimate D2E/DX2                !
 ! A145  A(13,18,20)           114.8088         estimate D2E/DX2                !
 ! A146  A(13,18,43)           108.0766         estimate D2E/DX2                !
 ! A147  A(16,18,19)            79.8933         estimate D2E/DX2                !
 ! A148  A(16,18,20)           107.7052         estimate D2E/DX2                !
 ! A149  A(16,18,43)           121.3607         estimate D2E/DX2                !
 ! A150  A(19,18,20)            86.3449         estimate D2E/DX2                !
 ! A151  A(19,18,43)            84.0727         estimate D2E/DX2                !
 ! A152  A(20,18,43)           127.1129         estimate D2E/DX2                !
 ! A153  A(18,19,42)            78.7397         estimate D2E/DX2                !
 ! A154  A(5,21,14)            105.9285         estimate D2E/DX2                !
 ! A155  A(5,21,22)            113.4789         estimate D2E/DX2                !
 ! A156  A(5,21,23)            102.6626         estimate D2E/DX2                !
 ! A157  A(12,21,22)           147.6355         estimate D2E/DX2                !
 ! A158  A(12,21,23)           100.5835         estimate D2E/DX2                !
 ! A159  A(14,21,22)           112.2092         estimate D2E/DX2                !
 ! A160  A(14,21,23)           110.2577         estimate D2E/DX2                !
 ! A161  A(22,21,23)           111.7628         estimate D2E/DX2                !
 ! A162  A(1,23,21)             80.4249         estimate D2E/DX2                !
 ! A163  A(10,24,17)            81.5459         estimate D2E/DX2                !
 ! A164  A(10,24,25)            83.8923         estimate D2E/DX2                !
 ! A165  A(10,24,26)            80.6736         estimate D2E/DX2                !
 ! A166  A(10,24,28)            83.9478         estimate D2E/DX2                !
 ! A167  A(10,24,30)           133.5925         estimate D2E/DX2                !
 ! A168  A(10,24,33)           134.8134         estimate D2E/DX2                !
 ! A169  A(10,24,36)            81.0114         estimate D2E/DX2                !
 ! A170  A(17,24,25)            96.9343         estimate D2E/DX2                !
 ! A171  A(17,24,26)            75.2747         estimate D2E/DX2                !
 ! A172  A(17,24,28)           161.4548         estimate D2E/DX2                !
 ! A173  A(17,24,30)           137.5006         estimate D2E/DX2                !
 ! A174  A(17,24,32)            88.0869         estimate D2E/DX2                !
 ! A175  A(17,24,33)            90.9765         estimate D2E/DX2                !
 ! A176  A(25,24,26)           163.5603         estimate D2E/DX2                !
 ! A177  A(25,24,28)            92.9328         estimate D2E/DX2                !
 ! A178  A(25,24,30)           108.2493         estimate D2E/DX2                !
 ! A179  A(25,24,32)           105.9446         estimate D2E/DX2                !
 ! A180  A(26,24,28)            91.0457         estimate D2E/DX2                !
 ! A181  A(26,24,30)            86.655          estimate D2E/DX2                !
 ! A182  A(26,24,32)            88.4703         estimate D2E/DX2                !
 ! A183  A(26,24,33)           140.2544         estimate D2E/DX2                !
 ! A184  A(26,24,36)           119.7082         estimate D2E/DX2                !
 ! A185  A(28,24,32)           104.2713         estimate D2E/DX2                !
 ! A186  A(28,24,33)           107.4692         estimate D2E/DX2                !
 ! A187  A(28,24,36)           142.585          estimate D2E/DX2                !
 ! A188  A(30,24,33)            78.7605         estimate D2E/DX2                !
 ! A189  A(30,24,36)           141.8114         estimate D2E/DX2                !
 ! A190  A(32,24,36)            97.773          estimate D2E/DX2                !
 ! A191  A(9,26,24)             95.0357         estimate D2E/DX2                !
 ! A192  A(24,26,27)            84.9607         estimate D2E/DX2                !
 ! A193  A(9,27,15)            104.6977         estimate D2E/DX2                !
 ! A194  A(9,27,28)             99.7432         estimate D2E/DX2                !
 ! A195  A(9,27,29)            153.0443         estimate D2E/DX2                !
 ! A196  A(11,27,15)           100.0131         estimate D2E/DX2                !
 ! A197  A(11,27,26)           108.9528         estimate D2E/DX2                !
 ! A198  A(11,27,28)            80.7319         estimate D2E/DX2                !
 ! A199  A(11,27,29)           153.9441         estimate D2E/DX2                !
 ! A200  A(12,27,26)            97.3318         estimate D2E/DX2                !
 ! A201  A(12,27,28)           134.7535         estimate D2E/DX2                !
 ! A202  A(12,27,29)           132.5686         estimate D2E/DX2                !
 ! A203  A(15,27,26)           107.5679         estimate D2E/DX2                !
 ! A204  A(15,27,28)           149.5748         estimate D2E/DX2                !
 ! A205  A(15,27,29)            79.9858         estimate D2E/DX2                !
 ! A206  A(26,27,28)           100.722          estimate D2E/DX2                !
 ! A207  A(26,27,29)            95.6182         estimate D2E/DX2                !
 ! A208  A(28,27,29)            86.4285         estimate D2E/DX2                !
 ! A209  A(24,28,27)            83.2233         estimate D2E/DX2                !
 ! A210  A(27,28,30)            81.7108         estimate D2E/DX2                !
 ! A211  A(27,29,30)            82.6488         estimate D2E/DX2                !
 ! A212  A(24,30,29)           111.9592         estimate D2E/DX2                !
 ! A213  A(24,30,31)           132.9173         estimate D2E/DX2                !
 ! A214  A(28,30,29)           100.5487         estimate D2E/DX2                !
 ! A215  A(28,30,31)           110.0131         estimate D2E/DX2                !
 ! A216  A(28,30,32)           111.5628         estimate D2E/DX2                !
 ! A217  A(29,30,31)           114.8997         estimate D2E/DX2                !
 ! A218  A(29,30,32)           107.3609         estimate D2E/DX2                !
 ! A219  A(31,30,32)           111.9358         estimate D2E/DX2                !
 ! A220  A(30,31,45)           121.6935         estimate D2E/DX2                !
 ! A221  A(30,32,33)            97.0671         estimate D2E/DX2                !
 ! A222  A(24,33,34)           132.3918         estimate D2E/DX2                !
 ! A223  A(24,33,35)           110.7485         estimate D2E/DX2                !
 ! A224  A(25,33,32)           112.0539         estimate D2E/DX2                !
 ! A225  A(25,33,34)           109.3359         estimate D2E/DX2                !
 ! A226  A(25,33,35)           100.373          estimate D2E/DX2                !
 ! A227  A(32,33,34)           111.6566         estimate D2E/DX2                !
 ! A228  A(32,33,35)           106.3451         estimate D2E/DX2                !
 ! A229  A(32,33,36)            99.8989         estimate D2E/DX2                !
 ! A230  A(34,33,35)           116.6097         estimate D2E/DX2                !
 ! A231  A(34,33,36)           148.195          estimate D2E/DX2                !
 ! A232  A(33,34,45)           123.301          estimate D2E/DX2                !
 ! A233  A(13,36,24)            77.6949         estimate D2E/DX2                !
 ! A234  A(13,36,25)           102.6629         estimate D2E/DX2                !
 ! A235  A(13,36,33)           131.1068         estimate D2E/DX2                !
 ! A236  A(13,36,35)           155.5853         estimate D2E/DX2                !
 ! A237  A(13,36,38)            99.5            estimate D2E/DX2                !
 ! A238  A(17,36,25)           103.7656         estimate D2E/DX2                !
 ! A239  A(17,36,33)            89.3052         estimate D2E/DX2                !
 ! A240  A(17,36,35)            99.3004         estimate D2E/DX2                !
 ! A241  A(17,36,37)           109.4293         estimate D2E/DX2                !
 ! A242  A(17,36,38)           100.4118         estimate D2E/DX2                !
 ! A243  A(17,36,39)            94.9583         estimate D2E/DX2                !
 ! A244  A(24,36,35)            92.9074         estimate D2E/DX2                !
 ! A245  A(24,36,37)           102.2087         estimate D2E/DX2                !
 ! A246  A(24,36,38)           151.3614         estimate D2E/DX2                !
 ! A247  A(24,36,39)           134.711          estimate D2E/DX2                !
 ! A248  A(25,36,35)            87.542          estimate D2E/DX2                !
 ! A249  A(25,36,37)            83.809          estimate D2E/DX2                !
 ! A250  A(25,36,38)           153.5036         estimate D2E/DX2                !
 ! A251  A(25,36,39)           137.2411         estimate D2E/DX2                !
 ! A252  A(33,36,37)           131.5213         estimate D2E/DX2                !
 ! A253  A(33,36,38)           122.4915         estimate D2E/DX2                !
 ! A254  A(35,36,37)           151.1986         estimate D2E/DX2                !
 ! A255  A(35,36,38)            77.9488         estimate D2E/DX2                !
 ! A256  A(35,36,39)           127.2134         estimate D2E/DX2                !
 ! A257  A(37,36,38)            98.2878         estimate D2E/DX2                !
 ! A258  A(13,39,38)           110.512          estimate D2E/DX2                !
 ! A259  A(13,39,40)           136.8824         estimate D2E/DX2                !
 ! A260  A(13,39,41)           143.869          estimate D2E/DX2                !
 ! A261  A(16,39,36)            99.1484         estimate D2E/DX2                !
 ! A262  A(16,39,37)           112.317          estimate D2E/DX2                !
 ! A263  A(16,39,38)           102.5365         estimate D2E/DX2                !
 ! A264  A(16,39,40)           129.4182         estimate D2E/DX2                !
 ! A265  A(16,39,41)            92.0044         estimate D2E/DX2                !
 ! A266  A(36,39,40)           131.2808         estimate D2E/DX2                !
 ! A267  A(36,39,41)           147.5386         estimate D2E/DX2                !
 ! A268  A(37,39,38)           104.2857         estimate D2E/DX2                !
 ! A269  A(37,39,40)            97.4359         estimate D2E/DX2                !
 ! A270  A(37,39,41)           146.2179         estimate D2E/DX2                !
 ! A271  A(38,39,40)           108.6698         estimate D2E/DX2                !
 ! A272  A(38,39,41)            92.1462         estimate D2E/DX2                !
 ! A273  A(39,40,42)            83.5229         estimate D2E/DX2                !
 ! A274  A(39,41,42)            86.8093         estimate D2E/DX2                !
 ! A275  A(19,42,40)           140.5833         estimate D2E/DX2                !
 ! A276  A(19,42,41)           101.7546         estimate D2E/DX2                !
 ! A277  A(19,42,43)            98.8007         estimate D2E/DX2                !
 ! A278  A(19,42,44)           109.0813         estimate D2E/DX2                !
 ! A279  A(40,42,43)            85.2785         estimate D2E/DX2                !
 ! A280  A(40,42,44)           105.5946         estimate D2E/DX2                !
 ! A281  A(41,42,43)           123.8182         estimate D2E/DX2                !
 ! A282  A(41,42,44)           109.9923         estimate D2E/DX2                !
 ! A283  A(43,42,44)           111.4168         estimate D2E/DX2                !
 ! A284  A(18,43,42)            83.0329         estimate D2E/DX2                !
 ! A285  A(31,45,34)            89.9596         estimate D2E/DX2                !
 ! A286  A(31,45,46)           101.3374         estimate D2E/DX2                !
 ! A287  A(31,45,47)            90.0577         estimate D2E/DX2                !
 ! A288  A(34,45,46)           100.9076         estimate D2E/DX2                !
 ! A289  A(46,45,47)            88.8967         estimate D2E/DX2                !
 ! A290  L(4,9,26,2,-1)        190.5913         estimate D2E/DX2                !
 ! A291  L(6,9,27,1,-1)        191.0192         estimate D2E/DX2                !
 ! A292  L(8,9,11,1,-1)        192.8634         estimate D2E/DX2                !
 ! A293  L(21,12,27,2,-1)      182.6958         estimate D2E/DX2                !
 ! A294  L(6,13,36,10,-1)      169.1605         estimate D2E/DX2                !
 ! A295  L(8,13,37,7,-1)       179.7172         estimate D2E/DX2                !
 ! A296  L(10,24,32,17,-1)     169.6328         estimate D2E/DX2                !
 ! A297  L(33,36,39,17,-1)     184.2636         estimate D2E/DX2                !
 ! A298  L(34,45,47,31,-1)     180.0173         estimate D2E/DX2                !
 ! A299  L(45,46,48,49,-1)     180.9746         estimate D2E/DX2                !
 ! A300  L(45,47,49,1,-1)      180.2237         estimate D2E/DX2                !
 ! A301  L(4,9,26,2,-2)        187.6324         estimate D2E/DX2                !
 ! A302  L(6,9,27,1,-2)        186.0594         estimate D2E/DX2                !
 ! A303  L(8,9,11,1,-2)        175.5789         estimate D2E/DX2                !
 ! A304  L(21,12,27,2,-2)      180.1118         estimate D2E/DX2                !
 ! A305  L(6,13,36,10,-2)      188.1406         estimate D2E/DX2                !
 ! A306  L(8,13,37,7,-2)       193.1084         estimate D2E/DX2                !
 ! A307  L(10,24,32,17,-2)     171.4313         estimate D2E/DX2                !
 ! A308  L(33,36,39,17,-2)     172.6194         estimate D2E/DX2                !
 ! A309  L(34,45,47,31,-2)     169.9945         estimate D2E/DX2                !
 ! A310  L(45,46,48,49,-2)     181.0987         estimate D2E/DX2                !
 ! A311  L(45,47,49,1,-2)      178.557          estimate D2E/DX2                !
 ! D1    D(2,1,3,6)             85.3301         estimate D2E/DX2                !
 ! D2    D(4,1,3,6)            -31.3033         estimate D2E/DX2                !
 ! D3    D(5,1,3,6)           -111.8291         estimate D2E/DX2                !
 ! D4    D(9,1,3,6)             25.4936         estimate D2E/DX2                !
 ! D5    D(12,1,3,6)            82.3946         estimate D2E/DX2                !
 ! D6    D(23,1,3,6)           172.9528         estimate D2E/DX2                !
 ! D7    D(2,1,4,6)            -71.2349         estimate D2E/DX2                !
 ! D8    D(3,1,4,6)             31.3606         estimate D2E/DX2                !
 ! D9    D(5,1,4,6)           -178.4556         estimate D2E/DX2                !
 ! D10   D(12,1,4,6)          -123.4783         estimate D2E/DX2                !
 ! D11   D(23,1,4,6)           105.9693         estimate D2E/DX2                !
 ! D12   D(2,1,5,21)            69.3919         estimate D2E/DX2                !
 ! D13   D(3,1,5,21)           -92.9673         estimate D2E/DX2                !
 ! D14   D(4,1,5,21)          -174.5904         estimate D2E/DX2                !
 ! D15   D(9,1,5,21)           127.6465         estimate D2E/DX2                !
 ! D16   D(23,1,5,21)          -18.8292         estimate D2E/DX2                !
 ! D17   D(3,1,9,6)            -21.6315         estimate D2E/DX2                !
 ! D18   D(3,1,9,8)             14.9432         estimate D2E/DX2                !
 ! D19   D(3,1,9,10)           -71.8387         estimate D2E/DX2                !
 ! D20   D(3,1,9,11)          -160.6357         estimate D2E/DX2                !
 ! D21   D(3,1,9,26)            92.3348         estimate D2E/DX2                !
 ! D22   D(3,1,9,27)           152.3091         estimate D2E/DX2                !
 ! D23   D(5,1,9,6)            138.349          estimate D2E/DX2                !
 ! D24   D(5,1,9,8)            174.9237         estimate D2E/DX2                !
 ! D25   D(5,1,9,10)            88.1418         estimate D2E/DX2                !
 ! D26   D(5,1,9,11)            -0.6552         estimate D2E/DX2                !
 ! D27   D(5,1,9,26)          -107.6848         estimate D2E/DX2                !
 ! D28   D(5,1,9,27)           -47.7105         estimate D2E/DX2                !
 ! D29   D(23,1,9,6)          -126.7508         estimate D2E/DX2                !
 ! D30   D(23,1,9,8)           -90.1761         estimate D2E/DX2                !
 ! D31   D(23,1,9,10)         -176.958          estimate D2E/DX2                !
 ! D32   D(23,1,9,11)           94.245          estimate D2E/DX2                !
 ! D33   D(23,1,9,26)          -12.7846         estimate D2E/DX2                !
 ! D34   D(23,1,9,27)           47.1898         estimate D2E/DX2                !
 ! D35   D(3,1,12,11)         -112.951          estimate D2E/DX2                !
 ! D36   D(3,1,12,14)           89.5652         estimate D2E/DX2                !
 ! D37   D(3,1,12,15)           -3.283          estimate D2E/DX2                !
 ! D38   D(3,1,12,21)          116.2405         estimate D2E/DX2                !
 ! D39   D(3,1,12,27)          -66.0891         estimate D2E/DX2                !
 ! D40   D(4,1,12,11)           -1.7586         estimate D2E/DX2                !
 ! D41   D(4,1,12,14)         -159.2424         estimate D2E/DX2                !
 ! D42   D(4,1,12,15)          107.9094         estimate D2E/DX2                !
 ! D43   D(4,1,12,21)         -132.5671         estimate D2E/DX2                !
 ! D44   D(4,1,12,27)           45.1032         estimate D2E/DX2                !
 ! D45   D(23,1,12,11)         159.3664         estimate D2E/DX2                !
 ! D46   D(23,1,12,14)           1.8826         estimate D2E/DX2                !
 ! D47   D(23,1,12,15)         -90.9656         estimate D2E/DX2                !
 ! D48   D(23,1,12,21)          28.5579         estimate D2E/DX2                !
 ! D49   D(23,1,12,27)        -153.7718         estimate D2E/DX2                !
 ! D50   D(2,1,23,21)          -87.7594         estimate D2E/DX2                !
 ! D51   D(3,1,23,21)          170.6106         estimate D2E/DX2                !
 ! D52   D(4,1,23,21)           94.7508         estimate D2E/DX2                !
 ! D53   D(5,1,23,21)           19.704          estimate D2E/DX2                !
 ! D54   D(9,1,23,21)          -77.4988         estimate D2E/DX2                !
 ! D55   D(12,1,23,21)         -36.6644         estimate D2E/DX2                !
 ! D56   D(1,2,9,12)           -82.8427         estimate D2E/DX2                !
 ! D57   D(1,3,6,4)             30.4057         estimate D2E/DX2                !
 ! D58   D(1,3,6,7)             88.5366         estimate D2E/DX2                !
 ! D59   D(1,3,6,8)            -75.2869         estimate D2E/DX2                !
 ! D60   D(1,3,6,9)            -20.9308         estimate D2E/DX2                !
 ! D61   D(1,3,6,13)           -77.7059         estimate D2E/DX2                !
 ! D62   D(1,3,6,18)          -179.7011         estimate D2E/DX2                !
 ! D63   D(1,3,6,20)          -177.5429         estimate D2E/DX2                !
 ! D64   D(1,4,6,3)            -30.1266         estimate D2E/DX2                !
 ! D65   D(1,4,6,7)            174.3826         estimate D2E/DX2                !
 ! D66   D(1,4,6,8)             73.3469         estimate D2E/DX2                !
 ! D67   D(1,4,6,13)           128.6496         estimate D2E/DX2                !
 ! D68   D(1,4,6,18)           179.0944         estimate D2E/DX2                !
 ! D69   D(1,4,6,20)          -100.0281         estimate D2E/DX2                !
 ! D70   D(1,5,21,14)          -92.8252         estimate D2E/DX2                !
 ! D71   D(1,5,21,22)          143.6339         estimate D2E/DX2                !
 ! D72   D(1,5,21,23)           22.8433         estimate D2E/DX2                !
 ! D73   D(3,6,9,1)             19.8476         estimate D2E/DX2                !
 ! D74   D(3,6,9,2)            -28.5076         estimate D2E/DX2                !
 ! D75   D(3,6,9,10)           170.4095         estimate D2E/DX2                !
 ! D76   D(3,6,9,11)            94.0656         estimate D2E/DX2                !
 ! D77   D(3,6,9,12)            14.3489         estimate D2E/DX2                !
 ! D78   D(3,6,9,26)          -111.5517         estimate D2E/DX2                !
 ! D79   D(7,6,9,1)           -133.1059         estimate D2E/DX2                !
 ! D80   D(7,6,9,2)            178.5389         estimate D2E/DX2                !
 ! D81   D(7,6,9,10)            17.456          estimate D2E/DX2                !
 ! D82   D(7,6,9,11)           -58.8878         estimate D2E/DX2                !
 ! D83   D(7,6,9,12)          -138.6045         estimate D2E/DX2                !
 ! D84   D(7,6,9,26)            95.4948         estimate D2E/DX2                !
 ! D85   D(13,6,9,1)          -179.0888         estimate D2E/DX2                !
 ! D86   D(13,6,9,2)           132.556          estimate D2E/DX2                !
 ! D87   D(13,6,9,10)          -28.5268         estimate D2E/DX2                !
 ! D88   D(13,6,9,11)         -104.8707         estimate D2E/DX2                !
 ! D89   D(13,6,9,12)          175.4126         estimate D2E/DX2                !
 ! D90   D(13,6,9,26)           49.5119         estimate D2E/DX2                !
 ! D91   D(18,6,9,1)          -179.7977         estimate D2E/DX2                !
 ! D92   D(18,6,9,2)           131.8471         estimate D2E/DX2                !
 ! D93   D(18,6,9,10)          -29.2358         estimate D2E/DX2                !
 ! D94   D(18,6,9,11)         -105.5797         estimate D2E/DX2                !
 ! D95   D(18,6,9,12)          174.7036         estimate D2E/DX2                !
 ! D96   D(18,6,9,26)           48.8029         estimate D2E/DX2                !
 ! D97   D(20,6,9,1)           102.0729         estimate D2E/DX2                !
 ! D98   D(20,6,9,2)            53.7177         estimate D2E/DX2                !
 ! D99   D(20,6,9,10)         -107.3652         estimate D2E/DX2                !
 ! D100  D(20,6,9,11)          176.2909         estimate D2E/DX2                !
 ! D101  D(20,6,9,12)           96.5742         estimate D2E/DX2                !
 ! D102  D(20,6,9,26)          -29.3265         estimate D2E/DX2                !
 ! D103  D(3,6,13,10)           88.3752         estimate D2E/DX2                !
 ! D104  D(3,6,13,16)          -75.4559         estimate D2E/DX2                !
 ! D105  D(3,6,13,17)           11.7671         estimate D2E/DX2                !
 ! D106  D(3,6,13,37)          164.5068         estimate D2E/DX2                !
 ! D107  D(3,6,13,39)         -116.3469         estimate D2E/DX2                !
 ! D108  D(4,6,13,10)          -17.0206         estimate D2E/DX2                !
 ! D109  D(4,6,13,16)          179.1482         estimate D2E/DX2                !
 ! D110  D(4,6,13,17)          -93.6287         estimate D2E/DX2                !
 ! D111  D(4,6,13,37)           59.1109         estimate D2E/DX2                !
 ! D112  D(4,6,13,39)          138.2572         estimate D2E/DX2                !
 ! D113  D(9,6,13,10)           28.5081         estimate D2E/DX2                !
 ! D114  D(9,6,13,16)         -135.3231         estimate D2E/DX2                !
 ! D115  D(9,6,13,17)          -48.1001         estimate D2E/DX2                !
 ! D116  D(9,6,13,37)          104.6396         estimate D2E/DX2                !
 ! D117  D(9,6,13,39)         -176.2141         estimate D2E/DX2                !
 ! D118  D(20,6,13,10)        -174.8278         estimate D2E/DX2                !
 ! D119  D(20,6,13,16)          21.341          estimate D2E/DX2                !
 ! D120  D(20,6,13,17)         108.564          estimate D2E/DX2                !
 ! D121  D(20,6,13,37)         -98.6963         estimate D2E/DX2                !
 ! D122  D(20,6,13,39)         -19.55           estimate D2E/DX2                !
 ! D123  D(3,6,18,16)          106.6234         estimate D2E/DX2                !
 ! D124  D(3,6,18,19)           19.1582         estimate D2E/DX2                !
 ! D125  D(3,6,18,43)         -110.4572         estimate D2E/DX2                !
 ! D126  D(4,6,18,16)         -115.8398         estimate D2E/DX2                !
 ! D127  D(4,6,18,19)          156.695          estimate D2E/DX2                !
 ! D128  D(4,6,18,43)           27.0796         estimate D2E/DX2                !
 ! D129  D(8,6,18,16)           -3.4029         estimate D2E/DX2                !
 ! D130  D(8,6,18,19)          -90.8681         estimate D2E/DX2                !
 ! D131  D(8,6,18,43)          139.5165         estimate D2E/DX2                !
 ! D132  D(9,6,18,16)          -45.6494         estimate D2E/DX2                !
 ! D133  D(9,6,18,19)         -133.1146         estimate D2E/DX2                !
 ! D134  D(9,6,18,43)           97.27           estimate D2E/DX2                !
 ! D135  D(6,7,13,18)          -76.5319         estimate D2E/DX2                !
 ! D136  D(13,8,9,1)          -129.1725         estimate D2E/DX2                !
 ! D137  D(13,8,9,2)           177.1996         estimate D2E/DX2                !
 ! D138  D(13,8,9,4)           -73.9542         estimate D2E/DX2                !
 ! D139  D(13,8,9,10)           10.9387         estimate D2E/DX2                !
 ! D140  D(13,8,9,12)          171.4712         estimate D2E/DX2                !
 ! D141  D(13,8,9,26)           94.804          estimate D2E/DX2                !
 ! D142  D(13,8,9,27)           93.1745         estimate D2E/DX2                !
 ! D143  D(9,8,13,7)            69.6684         estimate D2E/DX2                !
 ! D144  D(9,8,13,10)          -10.9195         estimate D2E/DX2                !
 ! D145  D(9,8,13,16)          179.1611         estimate D2E/DX2                !
 ! D146  D(9,8,13,17)          -94.0777         estimate D2E/DX2                !
 ! D147  D(9,8,13,18)          124.488          estimate D2E/DX2                !
 ! D148  D(9,8,13,36)          -89.4002         estimate D2E/DX2                !
 ! D149  D(9,8,13,39)         -170.218          estimate D2E/DX2                !
 ! D150  D(1,9,10,13)           80.4613         estimate D2E/DX2                !
 ! D151  D(1,9,10,24)          179.639          estimate D2E/DX2                !
 ! D152  D(2,9,10,13)          -58.0869         estimate D2E/DX2                !
 ! D153  D(2,9,10,24)           41.0908         estimate D2E/DX2                !
 ! D154  D(4,9,10,13)           86.0976         estimate D2E/DX2                !
 ! D155  D(4,9,10,24)         -174.7247         estimate D2E/DX2                !
 ! D156  D(6,9,10,13)           35.1027         estimate D2E/DX2                !
 ! D157  D(6,9,10,24)          134.2804         estimate D2E/DX2                !
 ! D158  D(8,9,10,13)          -11.1447         estimate D2E/DX2                !
 ! D159  D(8,9,10,24)           88.033          estimate D2E/DX2                !
 ! D160  D(11,9,10,13)         173.6863         estimate D2E/DX2                !
 ! D161  D(11,9,10,24)         -87.136          estimate D2E/DX2                !
 ! D162  D(12,9,10,13)        -171.3654         estimate D2E/DX2                !
 ! D163  D(12,9,10,24)         -72.1877         estimate D2E/DX2                !
 ! D164  D(26,9,10,13)         -88.558          estimate D2E/DX2                !
 ! D165  D(26,9,10,24)          10.6197         estimate D2E/DX2                !
 ! D166  D(27,9,10,13)        -135.0204         estimate D2E/DX2                !
 ! D167  D(27,9,10,24)         -35.8427         estimate D2E/DX2                !
 ! D168  D(4,9,12,5)             1.8368         estimate D2E/DX2                !
 ! D169  D(4,9,12,14)          -88.1322         estimate D2E/DX2                !
 ! D170  D(4,9,12,15)          164.7216         estimate D2E/DX2                !
 ! D171  D(4,9,12,21)          -37.6197         estimate D2E/DX2                !
 ! D172  D(6,9,12,5)            48.9477         estimate D2E/DX2                !
 ! D173  D(6,9,12,14)          -41.0213         estimate D2E/DX2                !
 ! D174  D(6,9,12,15)         -148.1675         estimate D2E/DX2                !
 ! D175  D(6,9,12,21)            9.4912         estimate D2E/DX2                !
 ! D176  D(8,9,12,5)           114.5933         estimate D2E/DX2                !
 ! D177  D(8,9,12,14)           24.6243         estimate D2E/DX2                !
 ! D178  D(8,9,12,15)          -82.5219         estimate D2E/DX2                !
 ! D179  D(8,9,12,21)           75.1369         estimate D2E/DX2                !
 ! D180  D(10,9,12,5)          -94.5332         estimate D2E/DX2                !
 ! D181  D(10,9,12,14)         175.4978         estimate D2E/DX2                !
 ! D182  D(10,9,12,15)          68.3516         estimate D2E/DX2                !
 ! D183  D(10,9,12,21)        -133.9897         estimate D2E/DX2                !
 ! D184  D(26,9,12,5)         -174.1529         estimate D2E/DX2                !
 ! D185  D(26,9,12,14)          95.8781         estimate D2E/DX2                !
 ! D186  D(26,9,12,15)         -11.2681         estimate D2E/DX2                !
 ! D187  D(26,9,12,21)         146.3907         estimate D2E/DX2                !
 ! D188  D(1,9,26,24)         -179.9073         estimate D2E/DX2                !
 ! D189  D(2,9,26,24)          179.538          estimate D2E/DX2                !
 ! D190  D(6,9,26,24)          -89.6261         estimate D2E/DX2                !
 ! D191  D(8,9,26,24)          -94.6017         estimate D2E/DX2                !
 ! D192  D(10,9,26,24)         -10.0093         estimate D2E/DX2                !
 ! D193  D(11,9,26,24)          73.2175         estimate D2E/DX2                !
 ! D194  D(12,9,26,24)         127.5861         estimate D2E/DX2                !
 ! D195  D(1,9,27,15)          -22.5775         estimate D2E/DX2                !
 ! D196  D(1,9,27,28)          139.1448         estimate D2E/DX2                !
 ! D197  D(1,9,27,29)         -119.4229         estimate D2E/DX2                !
 ! D198  D(2,9,27,15)           22.1803         estimate D2E/DX2                !
 ! D199  D(2,9,27,28)         -176.0973         estimate D2E/DX2                !
 ! D200  D(2,9,27,29)          -74.665          estimate D2E/DX2                !
 ! D201  D(4,9,27,15)          -95.5514         estimate D2E/DX2                !
 ! D202  D(4,9,27,28)           66.171          estimate D2E/DX2                !
 ! D203  D(4,9,27,29)          167.6033         estimate D2E/DX2                !
 ! D204  D(8,9,27,15)          103.8923         estimate D2E/DX2                !
 ! D205  D(8,9,27,28)          -94.3853         estimate D2E/DX2                !
 ! D206  D(8,9,27,29)            7.047          estimate D2E/DX2                !
 ! D207  D(10,9,27,15)        -176.1827         estimate D2E/DX2                !
 ! D208  D(10,9,27,28)         -14.4603         estimate D2E/DX2                !
 ! D209  D(10,9,27,29)          86.972          estimate D2E/DX2                !
 ! D210  D(9,10,13,6)          -34.6335         estimate D2E/DX2                !
 ! D211  D(9,10,13,7)          -83.7989         estimate D2E/DX2                !
 ! D212  D(9,10,13,8)           11.1357         estimate D2E/DX2                !
 ! D213  D(9,10,13,16)          49.7367         estimate D2E/DX2                !
 ! D214  D(9,10,13,17)          89.3757         estimate D2E/DX2                !
 ! D215  D(9,10,13,18)         -68.6396         estimate D2E/DX2                !
 ! D216  D(9,10,13,36)         137.2259         estimate D2E/DX2                !
 ! D217  D(9,10,13,37)        -170.6186         estimate D2E/DX2                !
 ! D218  D(9,10,13,39)         171.0453         estimate D2E/DX2                !
 ! D219  D(24,10,13,6)        -135.7725         estimate D2E/DX2                !
 ! D220  D(24,10,13,7)         175.0621         estimate D2E/DX2                !
 ! D221  D(24,10,13,8)         -90.0033         estimate D2E/DX2                !
 ! D222  D(24,10,13,16)        -51.4023         estimate D2E/DX2                !
 ! D223  D(24,10,13,17)        -11.7633         estimate D2E/DX2                !
 ! D224  D(24,10,13,18)       -169.7786         estimate D2E/DX2                !
 ! D225  D(24,10,13,36)         36.0869         estimate D2E/DX2                !
 ! D226  D(24,10,13,37)         88.2424         estimate D2E/DX2                !
 ! D227  D(24,10,13,39)         69.9063         estimate D2E/DX2                !
 ! D228  D(9,10,24,17)         -86.7315         estimate D2E/DX2                !
 ! D229  D(9,10,24,25)         175.2982         estimate D2E/DX2                !
 ! D230  D(9,10,24,26)         -10.3827         estimate D2E/DX2                !
 ! D231  D(9,10,24,28)          81.681          estimate D2E/DX2                !
 ! D232  D(9,10,24,30)          65.849          estimate D2E/DX2                !
 ! D233  D(9,10,24,33)        -169.6443         estimate D2E/DX2                !
 ! D234  D(9,10,24,36)        -132.689          estimate D2E/DX2                !
 ! D235  D(13,10,24,17)         11.7816         estimate D2E/DX2                !
 ! D236  D(13,10,24,25)        -86.1886         estimate D2E/DX2                !
 ! D237  D(13,10,24,26)         88.1304         estimate D2E/DX2                !
 ! D238  D(13,10,24,28)       -179.8058         estimate D2E/DX2                !
 ! D239  D(13,10,24,30)        164.3622         estimate D2E/DX2                !
 ! D240  D(13,10,24,33)        -71.1311         estimate D2E/DX2                !
 ! D241  D(13,10,24,36)        -34.1758         estimate D2E/DX2                !
 ! D242  D(9,11,12,27)         -81.0928         estimate D2E/DX2                !
 ! D243  D(1,12,21,22)         143.4516         estimate D2E/DX2                !
 ! D244  D(1,12,21,23)         -34.6272         estimate D2E/DX2                !
 ! D245  D(2,12,21,22)        -169.7946         estimate D2E/DX2                !
 ! D246  D(2,12,21,23)          12.1266         estimate D2E/DX2                !
 ! D247  D(9,12,21,22)         139.8702         estimate D2E/DX2                !
 ! D248  D(9,12,21,23)         -38.2086         estimate D2E/DX2                !
 ! D249  D(11,12,21,22)         74.6394         estimate D2E/DX2                !
 ! D250  D(11,12,21,23)       -103.4394         estimate D2E/DX2                !
 ! D251  D(15,12,21,22)        -66.8799         estimate D2E/DX2                !
 ! D252  D(15,12,21,23)        115.0412         estimate D2E/DX2                !
 ! D253  D(1,12,27,26)          42.1724         estimate D2E/DX2                !
 ! D254  D(1,12,27,28)         -70.8881         estimate D2E/DX2                !
 ! D255  D(1,12,27,29)         146.7808         estimate D2E/DX2                !
 ! D256  D(2,12,27,26)          -5.6716         estimate D2E/DX2                !
 ! D257  D(2,12,27,28)        -118.7321         estimate D2E/DX2                !
 ! D258  D(2,12,27,29)          98.9368         estimate D2E/DX2                !
 ! D259  D(5,12,27,26)         106.8844         estimate D2E/DX2                !
 ! D260  D(5,12,27,28)          -6.1762         estimate D2E/DX2                !
 ! D261  D(5,12,27,29)        -148.5072         estimate D2E/DX2                !
 ! D262  D(14,12,27,26)       -103.5828         estimate D2E/DX2                !
 ! D263  D(14,12,27,28)        143.3566         estimate D2E/DX2                !
 ! D264  D(14,12,27,29)          1.0256         estimate D2E/DX2                !
 ! D265  D(6,13,17,24)          89.6723         estimate D2E/DX2                !
 ! D266  D(7,13,17,24)          33.5706         estimate D2E/DX2                !
 ! D267  D(8,13,17,24)          96.1387         estimate D2E/DX2                !
 ! D268  D(10,13,17,24)         11.6593         estimate D2E/DX2                !
 ! D269  D(16,13,17,24)       -178.6314         estimate D2E/DX2                !
 ! D270  D(18,13,17,24)        167.683          estimate D2E/DX2                !
 ! D271  D(37,13,17,24)        -71.0474         estimate D2E/DX2                !
 ! D272  D(39,13,17,24)       -124.8625         estimate D2E/DX2                !
 ! D273  D(8,13,18,19)         100.7079         estimate D2E/DX2                !
 ! D274  D(8,13,18,20)         -10.9194         estimate D2E/DX2                !
 ! D275  D(8,13,18,43)        -159.1446         estimate D2E/DX2                !
 ! D276  D(10,13,18,19)        178.4656         estimate D2E/DX2                !
 ! D277  D(10,13,18,20)         66.8384         estimate D2E/DX2                !
 ! D278  D(10,13,18,43)        -81.3868         estimate D2E/DX2                !
 ! D279  D(17,13,18,19)         32.8148         estimate D2E/DX2                !
 ! D280  D(17,13,18,20)        -78.8124         estimate D2E/DX2                !
 ! D281  D(17,13,18,43)        132.9623         estimate D2E/DX2                !
 ! D282  D(36,13,18,19)        -39.1982         estimate D2E/DX2                !
 ! D283  D(36,13,18,20)       -150.8254         estimate D2E/DX2                !
 ! D284  D(36,13,18,43)         60.9494         estimate D2E/DX2                !
 ! D285  D(37,13,18,19)        -87.2898         estimate D2E/DX2                !
 ! D286  D(37,13,18,20)        161.083          estimate D2E/DX2                !
 ! D287  D(37,13,18,43)         12.8578         estimate D2E/DX2                !
 ! D288  D(39,13,18,19)        -39.8971         estimate D2E/DX2                !
 ! D289  D(39,13,18,20)       -151.5243         estimate D2E/DX2                !
 ! D290  D(39,13,18,43)         60.2504         estimate D2E/DX2                !
 ! D291  D(7,13,36,24)        -100.1875         estimate D2E/DX2                !
 ! D292  D(7,13,36,25)         -56.5293         estimate D2E/DX2                !
 ! D293  D(7,13,36,33)        -100.8229         estimate D2E/DX2                !
 ! D294  D(7,13,36,35)        -169.3981         estimate D2E/DX2                !
 ! D295  D(7,13,36,38)         108.8519         estimate D2E/DX2                !
 ! D296  D(8,13,36,24)          48.4743         estimate D2E/DX2                !
 ! D297  D(8,13,36,25)          92.1325         estimate D2E/DX2                !
 ! D298  D(8,13,36,33)          47.8389         estimate D2E/DX2                !
 ! D299  D(8,13,36,35)         -20.7363         estimate D2E/DX2                !
 ! D300  D(8,13,36,38)        -102.4863         estimate D2E/DX2                !
 ! D301  D(10,13,36,24)        -29.0645         estimate D2E/DX2                !
 ! D302  D(10,13,36,25)         14.5937         estimate D2E/DX2                !
 ! D303  D(10,13,36,33)        -29.6999         estimate D2E/DX2                !
 ! D304  D(10,13,36,35)        -98.2751         estimate D2E/DX2                !
 ! D305  D(10,13,36,38)        179.9749         estimate D2E/DX2                !
 ! D306  D(16,13,36,24)        134.6898         estimate D2E/DX2                !
 ! D307  D(16,13,36,25)        178.348          estimate D2E/DX2                !
 ! D308  D(16,13,36,33)        134.0544         estimate D2E/DX2                !
 ! D309  D(16,13,36,35)         65.4792         estimate D2E/DX2                !
 ! D310  D(16,13,36,38)        -16.2708         estimate D2E/DX2                !
 ! D311  D(18,13,36,24)        176.8755         estimate D2E/DX2                !
 ! D312  D(18,13,36,25)       -139.4663         estimate D2E/DX2                !
 ! D313  D(18,13,36,33)        176.2401         estimate D2E/DX2                !
 ! D314  D(18,13,36,35)        107.6649         estimate D2E/DX2                !
 ! D315  D(18,13,36,38)         25.9149         estimate D2E/DX2                !
 ! D316  D(6,13,39,38)         145.7115         estimate D2E/DX2                !
 ! D317  D(6,13,39,40)         -60.1828         estimate D2E/DX2                !
 ! D318  D(6,13,39,41)          20.2412         estimate D2E/DX2                !
 ! D319  D(7,13,39,38)        -165.7705         estimate D2E/DX2                !
 ! D320  D(7,13,39,40)         -11.6648         estimate D2E/DX2                !
 ! D321  D(7,13,39,41)          68.7591         estimate D2E/DX2                !
 ! D322  D(8,13,39,38)          78.6522         estimate D2E/DX2                !
 ! D323  D(8,13,39,40)        -127.2421         estimate D2E/DX2                !
 ! D324  D(8,13,39,41)         -46.8181         estimate D2E/DX2                !
 ! D325  D(10,13,39,38)        -71.0557         estimate D2E/DX2                !
 ! D326  D(10,13,39,40)         83.05           estimate D2E/DX2                !
 ! D327  D(10,13,39,41)        163.474          estimate D2E/DX2                !
 ! D328  D(17,13,39,38)          7.2869         estimate D2E/DX2                !
 ! D329  D(17,13,39,40)        161.3926         estimate D2E/DX2                !
 ! D330  D(17,13,39,41)       -118.1834         estimate D2E/DX2                !
 ! D331  D(18,13,39,38)        148.4537         estimate D2E/DX2                !
 ! D332  D(18,13,39,40)        -57.4406         estimate D2E/DX2                !
 ! D333  D(18,13,39,41)         22.9834         estimate D2E/DX2                !
 ! D334  D(39,16,18,6)         121.2268         estimate D2E/DX2                !
 ! D335  D(39,16,18,7)          67.4503         estimate D2E/DX2                !
 ! D336  D(39,16,18,19)       -100.468          estimate D2E/DX2                !
 ! D337  D(39,16,18,20)        176.7058         estimate D2E/DX2                !
 ! D338  D(39,16,18,43)        -23.8519         estimate D2E/DX2                !
 ! D339  D(18,16,39,36)       -117.0082         estimate D2E/DX2                !
 ! D340  D(18,16,39,37)        -62.3882         estimate D2E/DX2                !
 ! D341  D(18,16,39,38)       -173.7666         estimate D2E/DX2                !
 ! D342  D(18,16,39,40)         58.8418         estimate D2E/DX2                !
 ! D343  D(18,16,39,41)         93.5872         estimate D2E/DX2                !
 ! D344  D(13,17,24,10)        -11.5924         estimate D2E/DX2                !
 ! D345  D(13,17,24,25)         71.144          estimate D2E/DX2                !
 ! D346  D(13,17,24,26)        -94.1031         estimate D2E/DX2                !
 ! D347  D(13,17,24,28)        -50.4967         estimate D2E/DX2                !
 ! D348  D(13,17,24,30)       -162.0094         estimate D2E/DX2                !
 ! D349  D(13,17,24,32)        176.9764         estimate D2E/DX2                !
 ! D350  D(13,17,24,33)        123.6517         estimate D2E/DX2                !
 ! D351  D(6,18,19,42)        -169.2585         estimate D2E/DX2                !
 ! D352  D(7,18,19,42)         -43.663          estimate D2E/DX2                !
 ! D353  D(13,18,19,42)         81.6597         estimate D2E/DX2                !
 ! D354  D(16,18,19,42)         95.2117         estimate D2E/DX2                !
 ! D355  D(20,18,19,42)       -156.0691         estimate D2E/DX2                !
 ! D356  D(43,18,19,42)        -28.1536         estimate D2E/DX2                !
 ! D357  D(6,18,43,42)         175.5419         estimate D2E/DX2                !
 ! D358  D(7,18,43,42)        -158.5307         estimate D2E/DX2                !
 ! D359  D(13,18,43,42)       -109.9212         estimate D2E/DX2                !
 ! D360  D(16,18,43,42)        -48.2927         estimate D2E/DX2                !
 ! D361  D(19,18,43,42)         26.05           estimate D2E/DX2                !
 ! D362  D(20,18,43,42)        106.9052         estimate D2E/DX2                !
 ! D363  D(18,19,42,40)        -63.9057         estimate D2E/DX2                !
 ! D364  D(18,19,42,41)        -98.0339         estimate D2E/DX2                !
 ! D365  D(18,19,42,43)         29.3729         estimate D2E/DX2                !
 ! D366  D(18,19,42,44)        145.7666         estimate D2E/DX2                !
 ! D367  D(5,21,23,1)          -21.7991         estimate D2E/DX2                !
 ! D368  D(12,21,23,1)          35.1306         estimate D2E/DX2                !
 ! D369  D(14,21,23,1)          90.7047         estimate D2E/DX2                !
 ! D370  D(22,21,23,1)        -143.7622         estimate D2E/DX2                !
 ! D371  D(10,24,26,9)           9.9708         estimate D2E/DX2                !
 ! D372  D(10,24,26,27)         85.3818         estimate D2E/DX2                !
 ! D373  D(17,24,26,9)          93.6045         estimate D2E/DX2                !
 ! D374  D(17,24,26,27)        169.0155         estimate D2E/DX2                !
 ! D375  D(25,24,26,9)          30.323          estimate D2E/DX2                !
 ! D376  D(25,24,26,27)        105.734          estimate D2E/DX2                !
 ! D377  D(28,24,26,9)         -73.7218         estimate D2E/DX2                !
 ! D378  D(28,24,26,27)          1.6892         estimate D2E/DX2                !
 ! D379  D(30,24,26,9)        -125.2278         estimate D2E/DX2                !
 ! D380  D(30,24,26,27)        -49.8168         estimate D2E/DX2                !
 ! D381  D(32,24,26,9)        -177.972          estimate D2E/DX2                !
 ! D382  D(32,24,26,27)       -102.5609         estimate D2E/DX2                !
 ! D383  D(33,24,26,9)         166.8367         estimate D2E/DX2                !
 ! D384  D(33,24,26,27)       -117.7523         estimate D2E/DX2                !
 ! D385  D(36,24,26,9)          83.9493         estimate D2E/DX2                !
 ! D386  D(36,24,26,27)        159.3603         estimate D2E/DX2                !
 ! D387  D(10,24,28,27)        -82.0027         estimate D2E/DX2                !
 ! D388  D(17,24,28,27)        -43.344          estimate D2E/DX2                !
 ! D389  D(25,24,28,27)       -165.5395         estimate D2E/DX2                !
 ! D390  D(26,24,28,27)         -1.4959         estimate D2E/DX2                !
 ! D391  D(32,24,28,27)         87.1915         estimate D2E/DX2                !
 ! D392  D(33,24,28,27)        142.7906         estimate D2E/DX2                !
 ! D393  D(36,24,28,27)       -148.6002         estimate D2E/DX2                !
 ! D394  D(10,24,30,29)        -67.7433         estimate D2E/DX2                !
 ! D395  D(10,24,30,31)        106.405          estimate D2E/DX2                !
 ! D396  D(17,24,30,29)         69.8624         estimate D2E/DX2                !
 ! D397  D(17,24,30,31)       -115.9893         estimate D2E/DX2                !
 ! D398  D(25,24,30,29)       -166.906          estimate D2E/DX2                !
 ! D399  D(25,24,30,31)          7.2423         estimate D2E/DX2                !
 ! D400  D(26,24,30,29)          6.0093         estimate D2E/DX2                !
 ! D401  D(26,24,30,31)       -179.8424         estimate D2E/DX2                !
 ! D402  D(33,24,30,29)        148.8424         estimate D2E/DX2                !
 ! D403  D(33,24,30,31)        -37.0093         estimate D2E/DX2                !
 ! D404  D(36,24,30,29)        142.7827         estimate D2E/DX2                !
 ! D405  D(36,24,30,31)        -43.069          estimate D2E/DX2                !
 ! D406  D(10,24,33,34)       -104.3296         estimate D2E/DX2                !
 ! D407  D(10,24,33,35)         69.5811         estimate D2E/DX2                !
 ! D408  D(17,24,33,34)        176.6428         estimate D2E/DX2                !
 ! D409  D(17,24,33,35)         -9.4465         estimate D2E/DX2                !
 ! D410  D(26,24,33,34)        108.7977         estimate D2E/DX2                !
 ! D411  D(26,24,33,35)        -77.2916         estimate D2E/DX2                !
 ! D412  D(28,24,33,34)         -5.3052         estimate D2E/DX2                !
 ! D413  D(28,24,33,35)        168.6055         estimate D2E/DX2                !
 ! D414  D(30,24,33,34)         38.1889         estimate D2E/DX2                !
 ! D415  D(30,24,33,35)       -147.9004         estimate D2E/DX2                !
 ! D416  D(10,24,36,13)         29.1201         estimate D2E/DX2                !
 ! D417  D(10,24,36,35)       -173.6432         estimate D2E/DX2                !
 ! D418  D(10,24,36,37)        -18.3146         estimate D2E/DX2                !
 ! D419  D(10,24,36,38)        116.4277         estimate D2E/DX2                !
 ! D420  D(10,24,36,39)         31.8829         estimate D2E/DX2                !
 ! D421  D(26,24,36,13)        -44.6699         estimate D2E/DX2                !
 ! D422  D(26,24,36,35)        112.5668         estimate D2E/DX2                !
 ! D423  D(26,24,36,37)        -92.1046         estimate D2E/DX2                !
 ! D424  D(26,24,36,38)         42.6377         estimate D2E/DX2                !
 ! D425  D(26,24,36,39)        -41.9071         estimate D2E/DX2                !
 ! D426  D(28,24,36,13)         96.6334         estimate D2E/DX2                !
 ! D427  D(28,24,36,35)       -106.1298         estimate D2E/DX2                !
 ! D428  D(28,24,36,37)         49.1987         estimate D2E/DX2                !
 ! D429  D(28,24,36,38)       -176.059          estimate D2E/DX2                !
 ! D430  D(28,24,36,39)         99.3962         estimate D2E/DX2                !
 ! D431  D(30,24,36,13)       -172.7466         estimate D2E/DX2                !
 ! D432  D(30,24,36,35)        -15.5098         estimate D2E/DX2                !
 ! D433  D(30,24,36,37)        139.8187         estimate D2E/DX2                !
 ! D434  D(30,24,36,38)        -85.439          estimate D2E/DX2                !
 ! D435  D(30,24,36,39)       -169.9838         estimate D2E/DX2                !
 ! D436  D(32,24,36,13)       -137.3561         estimate D2E/DX2                !
 ! D437  D(32,24,36,35)         19.8807         estimate D2E/DX2                !
 ! D438  D(32,24,36,37)        175.2092         estimate D2E/DX2                !
 ! D439  D(32,24,36,38)        -50.0485         estimate D2E/DX2                !
 ! D440  D(32,24,36,39)       -134.5933         estimate D2E/DX2                !
 ! D441  D(24,25,33,36)        -80.9789         estimate D2E/DX2                !
 ! D442  D(24,26,27,11)        -85.4663         estimate D2E/DX2                !
 ! D443  D(24,26,27,12)       -140.0001         estimate D2E/DX2                !
 ! D444  D(24,26,27,15)        166.9825         estimate D2E/DX2                !
 ! D445  D(24,26,27,28)         -1.6829         estimate D2E/DX2                !
 ! D446  D(24,26,27,29)         85.7333         estimate D2E/DX2                !
 ! D447  D(9,27,28,24)          60.3344         estimate D2E/DX2                !
 ! D448  D(9,27,28,30)         133.5787         estimate D2E/DX2                !
 ! D449  D(11,27,28,24)        109.5181         estimate D2E/DX2                !
 ! D450  D(11,27,28,30)       -177.2376         estimate D2E/DX2                !
 ! D451  D(12,27,28,24)        113.5721         estimate D2E/DX2                !
 ! D452  D(12,27,28,30)       -173.1836         estimate D2E/DX2                !
 ! D453  D(15,27,28,24)       -156.4666         estimate D2E/DX2                !
 ! D454  D(15,27,28,30)        -83.2222         estimate D2E/DX2                !
 ! D455  D(26,27,28,24)          1.8181         estimate D2E/DX2                !
 ! D456  D(26,27,28,30)         75.0624         estimate D2E/DX2                !
 ! D457  D(29,27,28,24)        -93.2313         estimate D2E/DX2                !
 ! D458  D(29,27,28,30)        -19.987          estimate D2E/DX2                !
 ! D459  D(9,27,29,30)         -83.3794         estimate D2E/DX2                !
 ! D460  D(11,27,29,30)         81.5053         estimate D2E/DX2                !
 ! D461  D(12,27,29,30)        175.4035         estimate D2E/DX2                !
 ! D462  D(15,27,29,30)        173.8444         estimate D2E/DX2                !
 ! D463  D(26,27,29,30)        -79.2608         estimate D2E/DX2                !
 ! D464  D(28,27,29,30)         21.1768         estimate D2E/DX2                !
 ! D465  D(27,28,30,29)         24.0113         estimate D2E/DX2                !
 ! D466  D(27,28,30,31)        145.5866         estimate D2E/DX2                !
 ! D467  D(27,28,30,32)        -89.5636         estimate D2E/DX2                !
 ! D468  D(27,29,30,24)         33.9644         estimate D2E/DX2                !
 ! D469  D(27,29,30,28)        -23.2646         estimate D2E/DX2                !
 ! D470  D(27,29,30,31)       -141.3139         estimate D2E/DX2                !
 ! D471  D(27,29,30,32)         93.4726         estimate D2E/DX2                !
 ! D472  D(24,30,31,45)         -7.4715         estimate D2E/DX2                !
 ! D473  D(28,30,31,45)         53.9711         estimate D2E/DX2                !
 ! D474  D(29,30,31,45)        166.5447         estimate D2E/DX2                !
 ! D475  D(32,30,31,45)        -70.6642         estimate D2E/DX2                !
 ! D476  D(28,30,32,33)        -62.0521         estimate D2E/DX2                !
 ! D477  D(29,30,32,33)       -171.308          estimate D2E/DX2                !
[...]
 007728,0.00034888,0.00070473,-0.00074317,-0.00064121,0.00060237,0.0007
 4611,-0.00012762,-0.00002931,-0.00000080,0.00025918,-0.00153942,0.0001
 7453,0.00020121,0.00077380,0.00062623,-0.00067151,0.00077882,-0.001343
 79,-0.00012768,-0.00073724,-0.00102885,0.00393366,0.00097132,0.0064752
 5,-0.00109886,0.00001606,0.00049693,-0.00031622,-0.00156794,-0.0025335
 5,-0.00300155,0.00674587,0.00356331,0.00292158,0.00002345,0.00028171,0
 .00044324,-0.00155245,0.00015538,-0.00013722,-0.00000717,0.00024073,-0
 .00014391,-0.00029892,0.00000328,-0.00043161,0.00047209,-0.00045454,0.
 00016128,0.00009464,0.00003185,0.00020794,-0.00009480,0.,-0.00088081,-
 0.00020653,0.00024695,0.00026493,0.00003272,0.00005719,0.00061264,0.00
 023082,0.00016123,-0.03408583,-0.07931493,0.00459921,0.46837493,0.5869
 1464,0.00010194,-0.00010430,0.00000828,0.00004239,0.00003270,-0.000010
 25,-0.00007073,0.00000401,-0.00005380,0.00000763,-0.00005036,0.0000606
 4,-0.00003363,-0.00000907,-0.00002208,0.00010908,-0.00006626,-0.000150
 44,0.00002370,-0.00004180,0.00003010,0.00010762,0.00006650,-0.00000940
 ,-0.00037077,-0.00001471,0.00002904,-0.00015080,-0.00006389,0.00006854
 ,-0.00021632,-0.00024016,-0.00005430,0.00010833,0.00016364,0.00005664,
 0.00008095,-0.00023900,0.00008102,-0.00000774,-0.00001808,0.00006262,0
 .00024947,-0.00004644,0.00012235,-0.00009116,0.00004742,0.00002927,-0.
 00007924,0.00006525,-0.00001254,-0.00008175,0.00019194,-0.00003330,-0.
 00001057,0.00002504,0.00001080,-0.00006509,-0.00002704,0.00007009,-0.0
 0002246,0.00028078,-0.00015136,0.00009792,-0.00020525,0.00007738,-0.00
 002642,0.00000875,0.00002143,-0.00016679,-0.00081956,-0.00017975,-0.00
 027173,0.00040504,-0.00021095,0.00010122,-0.00012887,-0.00010244,-0.00
 034627,0.00089154,-0.00053145,-0.00014020,0.00061778,0.00050759,0.0019
 2930,-0.00085995,0.00094590,-0.00395457,0.00019508,-0.00093920,0.00678
 261,0.01173834,-0.01053176,0.00133138,-0.00076171,0.00002424,0.0005059
 0,-0.00064696,0.00105331,0.00363404,-0.00266108,-0.00029773,-0.0012687
 2,0.00040901,-0.00004685,0.00019905,0.00010773,0.00072711,0.00009438,-
 0.00009925,-0.00015199,0.00003976,-0.00013419,-0.00019079,0.00002205,0
 .00027478,-0.00000122,-0.00003811,-0.00003307,-0.00007686,-0.00006924,
 0.00000790,0.00006193,0.00021338,0.00000616,0.00007866,-0.00000667,-0.
 00000874,-0.00003607,-0.00014956,-0.00005048,-0.00004650,0.02410109,0.
 01234376,-0.04683935,-0.21320733,-0.21363370,0.17684349,0.00039307,-0.
 00004279,-0.00007547,0.00017651,0.00002006,0.00010188,-0.00006615,0.00
 017454,-0.00019297,0.00019123,0.00009954,0.00006163,-0.00004276,0.0000
 9050,0.00010333,-0.00017990,0.00000516,-0.00036093,-0.00007493,-0.0000
 7233,0.00012491,-0.00015625,-0.00002470,-0.00006950,0.00027055,-0.0001
 6427,-0.00029627,0.00041405,0.00035589,0.00021683,-0.00051337,-0.00023
 329,-0.00026720,0.00063799,0.00073525,-0.00014644,0.00055917,-0.000087
 17,-0.00069039,-0.00009625,0.00002567,-0.00009368,-0.00003645,-0.00012
 318,0.00019404,-0.00038392,-0.00003508,-0.00008591,0.00013805,0.000218
 77,0.00005744,0.00045290,-0.00047635,0.00094754,-0.00013274,-0.0000699
 7,-0.00028153,-0.00023191,0.00016718,-0.00010455,0.00041508,-0.0009339
 0,0.00024411,-0.00033067,0.00065030,-0.00023354,-0.00009605,0.00006014
 ,-0.00006110,-0.00155704,-0.00205244,0.00037274,0.00058109,0.00061339,
 0.00046155,0.00035500,-0.00012570,0.00042491,-0.00169711,0.00005225,0.
 00003603,-0.00030477,-0.00056156,-0.00070388,-0.00077606,0.00113545,-0
 .00060918,0.00649352,0.00155221,-0.00475335,0.00001927,-0.00783719,0.0
 0899685,0.00042640,0.00270754,-0.00083355,0.00151085,-0.00026989,-0.00
 329068,-0.01282270,0.01097425,0.00611278,0.00051573,-0.00005708,-0.000
 81014,0.00047083,-0.00208929,0.00082154,0.00025187,-0.00008306,0.00020
 984,-0.00018403,-0.00058007,0.00033419,0.00007254,0.00194220,-0.000872
 00,0.00004782,0.00005629,-0.00008902,0.00020436,-0.00022482,0.00007723
 ,-0.00114058,-0.00023036,0.00028722,0.00050676,0.00024218,0.00000490,0
 .00066889,0.00023759,0.00018843,-0.07645811,0.02077502,0.01689905,0.02
 685175,-0.00360789,-0.01197834,0.47958453,-0.00038900,0.00003782,0.000
 01381,-0.00013169,-0.00004352,-0.00005213,0.00010304,-0.00019890,0.000
 26823,-0.00018229,-0.00007819,-0.00004938,0.00001177,-0.00007161,-0.00
 010699,0.00004378,0.00001015,-0.00007995,0.00006239,0.00010709,-0.0001
 1964,0.00019335,0.00013009,0.00004416,-0.00042319,-0.00013253,0.000304
 38,0.00001841,-0.00052734,0.00004507,0.00066184,0.00018990,0.00030042,
 -0.00058859,-0.00065877,0.00081724,-0.00063969,-0.00045687,0.00096802,
 0.00009000,-0.00002542,0.00008332,0.00018594,-0.00028263,-0.00015681,0
 .00026371,-0.00002445,-0.00002431,-0.00018488,0.00013355,0.00009064,-0
 .00025735,0.00032537,-0.00075900,0.00016696,0.00004851,0.00032548,0.00
 019858,-0.00011243,0.00023196,-0.00044667,0.00105937,-0.00026544,0.000
 36872,-0.00073644,0.00026255,0.00009981,-0.00005445,0.00006017,-0.0000
 3096,0.00114362,-0.00030582,-0.00004514,0.00003637,-0.00007850,-0.0004
 3838,-0.00009805,-0.00029356,0.00105254,0.00083993,-0.00137176,0.00018
 535,-0.00056018,0.00094363,0.00056272,-0.00008051,0.00005475,-0.005439
 64,-0.00302987,0.00639178,-0.00116375,0.00622277,-0.01257069,0.0000641
 4,-0.00161764,-0.00055356,0.00017375,-0.00403011,0.00649955,0.02485756
 ,-0.00539858,-0.01011212,-0.00341752,0.00053222,-0.00083798,0.00026677
 ,0.00219822,-0.00055849,-0.00008051,-0.00000139,-0.00028239,0.00015709
 ,0.00063242,-0.00027960,0.00043103,-0.00126277,0.00077220,-0.00012080,
 -0.00005898,0.00006691,-0.00026232,0.00015667,-0.00005909,0.00108720,0
 .00029571,-0.00037555,-0.00043469,-0.00014905,-0.00002443,-0.00070424,
 -0.00025874,-0.00018421,0.00112530,-0.03803770,0.01209252,-0.00297543,
 -0.02942490,-0.00221656,-0.46274385,0.62053676,-0.00020507,-0.00003175
 ,-0.00002660,-0.00006845,-0.00000863,0.00002303,-0.00005741,-0.0000528
 4,0.00004215,-0.00010126,-0.00009097,0.00003720,-0.00000655,-0.0000151
 6,-0.00010274,0.00026039,-0.00028086,0.00028997,0.00000023,-0.00002545
 ,0.00003829,0.00013794,0.00003486,0.00011148,-0.00047258,-0.00011635,0
 .00032579,0.00027251,-0.00018217,0.00019496,0.00033562,-0.00000480,0.0
 0002753,-0.00037342,-0.00030791,0.00056733,0.00008925,0.00023077,-0.00
 005920,0.00003542,0.00000698,0.00000917,-0.00003957,-0.00018649,-0.000
 20731,0.00010821,-0.00003707,-0.00008073,0.00021229,-0.00003746,0.0001
 0496,-0.00036151,0.00027365,-0.00046912,0.00005843,0.00001818,0.000177
 33,0.00013475,-0.00007580,0.00001839,-0.00022596,0.00060353,-0.0001862
 3,0.00020017,-0.00039870,0.00014009,0.00001581,-0.00001704,0.00002703,
 -0.00057460,0.00003637,-0.00060587,-0.00087362,-0.00010334,-0.00000038
 ,-0.00015237,-0.00023326,0.00014637,0.00196458,0.00121890,-0.00069221,
 -0.00009751,0.00028476,0.00052987,0.00021309,-0.00039865,0.00091785,-0
 .00470396,-0.00079404,0.00361675,0.00790852,-0.00723596,-0.01371301,0.
 00039390,0.00034679,-0.00064709,-0.00432435,-0.00303260,0.00474732,0.0
 1594098,-0.00039826,-0.00001853,-0.00024496,-0.00078562,-0.00076715,-0
 .00031634,-0.00051819,-0.00034197,-0.00009697,0.00021957,0.00001042,-0
 .00000723,0.00047580,-0.00001680,0.00017098,-0.00065836,0.00034087,-0.
 00003281,-0.00005168,0.00001756,-0.00012723,0.00012346,-0.00003500,0.0
 0055192,0.00008634,-0.00013090,-0.00021381,-0.00004369,-0.00001823,-0.
 00035871,-0.00014191,-0.00009075,0.00844112,0.00502853,-0.04230820,-0.
 01498223,0.00567622,0.00722889,-0.22420623,0.24129853,0.19050051,-0.00
 003333,-0.00007469,-0.00004134,-0.00000099,0.00002732,-0.00001687,-0.0
 0005221,-0.00006834,0.00004816,-0.00009995,-0.00006058,0.00002188,-0.0
 0004380,-0.00005314,-0.00006067,0.00013728,-0.00011894,0.00006595,0.00
 006135,0.00000024,-0.00001866,0.00012106,0.00009665,-0.00002666,-0.000
 25908,-0.00003769,0.00013807,-0.00010977,-0.00018131,0.00004471,0.0001
 3599,-0.00004303,-0.00005632,-0.00013928,-0.00014654,0.00018924,-0.000
 21640,-0.00018838,0.00037074,0.00003797,-0.00003115,0.00009623,0.00002
 428,-0.00006967,-0.00006921,0.00009288,0.00001885,0.00000808,0.0000978
 2,-0.00000056,0.00007306,-0.00025239,0.00033601,-0.00045367,0.00006709
 ,0.00003585,0.00016957,0.00007444,-0.00007979,0.00013479,-0.00017423,0
 .00063811,-0.00025006,0.00021707,-0.00044548,0.00016255,-0.00000069,-0
 .00001310,0.00005352,-0.00041880,0.00017204,-0.00031236,-0.00006216,-0
 .00009761,0.00009118,0.00006132,-0.00001950,-0.00007184,0.00065169,0.0
 0067291,0.00030602,0.00016903,0.00012666,-0.00006800,0.00049623,-0.000
 94427,0.00136645,-0.00149529,0.00113222,0.00061391,-0.00041541,-0.0010
 6928,-0.00404287,0.00008952,-0.00027226,-0.00039567,-0.00076923,-0.001
 10280,0.00178735,0.00319299,0.00037012,-0.00217006,-0.00076526,0.00024
 368,-0.00018873,0.00041315,0.00041727,-0.00033767,-0.00001169,0.000034
 09,-0.00010956,-0.00005488,0.00029428,-0.00005742,0.00002126,-0.000555
 50,0.00034345,-0.00006071,-0.00006429,-0.00002092,-0.00013852,0.000090
 64,0.00001179,0.00068651,0.00011513,-0.00011213,-0.00023362,-0.0000804
 9,-0.00003574,-0.00043944,-0.00016221,-0.00012151,-0.01464281,-0.03908
 391,0.01689099,-0.44654692,-0.42903113,0.18896960,-0.00915395,0.004626
 97,0.00471648,0.46480313,-0.00004591,-0.00006141,-0.00003972,-0.000004
 84,0.00001860,-0.00000992,-0.00003645,-0.00008239,0.00007587,-0.000095
 99,-0.00005005,0.00001486,-0.00004263,-0.00005071,-0.00005833,0.000098
 48,-0.00008946,-0.00002923,0.00004888,0.00000307,-0.00002035,0.0001297
 9,0.00011159,-0.00003391,-0.00026380,-0.00009697,0.00013166,-0.0001030
 4,-0.00019253,0.00007709,0.00015986,-0.00005644,-0.00003832,-0.0001348
 9,-0.00015309,0.00026734,-0.00025323,-0.00032443,0.00040328,0.00003791
 ,-0.00003506,0.00009345,0.00005721,-0.00009132,-0.00001817,0.00007503,
 0.00001133,-0.00000848,0.00009271,0.00007218,-0.00001527,-0.00020960,0
 .00031221,-0.00043659,0.00007610,0.00003550,0.00018357,0.00007225,-0.0
 0007482,0.00017040,-0.00018553,0.00066073,-0.00024945,0.00022546,-0.00
 046328,0.00016863,0.00000450,-0.00001534,0.00005540,-0.00031047,-0.000
 10182,0.00009063,0.00014774,-0.00017727,-0.00013382,0.00003821,-0.0000
 2315,-0.00006778,0.00041781,0.00081060,-0.00005991,0.00002199,-0.00004
 437,-0.00009568,0.00055597,-0.00074568,0.00110474,-0.00133487,0.000586
 97,0.00078300,-0.00008227,0.00020968,-0.00422909,0.00028467,-0.0003217
 8,-0.00019036,0.00048387,0.00010145,0.00110430,0.00165074,-0.00078070,
 -0.00187140,-0.00145951,0.00015041,-0.00013255,0.00006801,0.00081286,-
 0.00019007,0.00002229,-0.00000158,-0.00016212,0.00003468,0.00027523,-0
 .00005500,0.00014107,-0.00052816,0.00035754,-0.00008148,-0.00006744,-0
 .00002365,-0.00015043,0.00008776,0.00000837,0.00070088,0.00013045,-0.0
 0013918,-0.00023064,-0.00006414,-0.00003676,-0.00046006,-0.00017121,-0
 .00012525,-0.04165601,-0.02956858,0.02435285,-0.42818060,-0.49820171,0
 .19692999,-0.00341633,0.01151936,0.00046967,0.46939239,0.52322834,0.00
 001128,0.00003510,-0.00000181,0.00000374,-0.00001093,0.00000892,0.0000
 2328,0.00002446,-0.00001210,0.00002587,0.00002769,-0.00001368,0.000012
 93,0.00001726,0.00002432,-0.00006908,0.00003842,0.00000610,-0.00002183
 ,0.00000656,0.00000774,-0.00005780,-0.00003497,-0.00000204,0.00015978,
 0.00000771,-0.00005786,0.00006156,0.00007942,-0.00000859,-0.00000816,0
 .00004198,-0.00001336,0.00004340,0.00004094,-0.00008321,0.00005299,0.0
 0008853,-0.00013153,-0.00000908,0.00001454,-0.00003854,-0.00007645,0.0
 0003765,-0.00002093,-0.00002144,-0.00001730,-0.00001228,0.00001116,-0.
 00001481,-0.00002696,0.00010197,-0.00014515,0.00016262,-0.00002072,-0.
 00001796,-0.00005892,-0.00001547,0.00003356,-0.00005312,0.00006366,-0.
 00025673,0.00010327,-0.00008790,0.00018021,-0.00006609,0.00000332,0.00
 000351,-0.00001987,-0.00000221,0.00009743,0.00009207,0.00009967,-0.000
 06877,0.00006109,0.00001153,0.00002612,0.00004365,-0.00012882,-0.00038
 714,0.00029443,0.00000487,-0.00019375,-0.00022793,-0.00055897,0.000327
 96,-0.00043024,0.00171231,0.00024288,-0.00052302,-0.00157719,-0.002846
 85,0.00421204,-0.00038982,0.00029689,0.00005212,-0.00015611,0.00030775
 ,-0.00057834,-0.00137435,0.00062241,0.00063063,0.00065949,-0.00018253,
 0.00000828,-0.00017854,-0.00028360,-0.00005492,0.00000182,0.00002134,0
 .00008295,-0.00001345,-0.00006309,0.00008180,-0.00001330,0.00016091,-0
 .00012394,0.00002399,0.00002623,0.00001951,0.00006161,-0.00003283,-0.0
 0001470,-0.00027103,-0.00004033,0.00002495,0.00008284,0.00003066,0.000
 01554,0.00017435,0.00006325,0.00004944,0.01662073,0.02162923,0.0057654
 2,0.18785203,0.19580178,-0.12459077,0.00421696,-0.00093178,-0.00222418
 ,-0.20497116,-0.21657730,0.11627424,-0.00017594,-0.00000195,0.00001901
 ,-0.00006417,-0.00001057,-0.00003829,0.00002154,-0.00010376,0.00011103
 ,-0.00011034,-0.00005797,-0.00001364,0.00000134,-0.00005176,-0.0000669
 8,0.00009584,-0.00001770,0.00004317,0.00003572,0.00003586,-0.00004655,
 0.00011714,0.00006972,0.00000997,-0.00025309,-0.00003060,0.00012653,-0
 .00018985,-0.00023647,-0.00002046,0.00025388,0.00004198,0.00008169,-0.
 00031104,-0.00033357,0.00023185,-0.00030754,-0.00019985,0.00044409,0.0
 0005166,-0.00001875,0.00006608,0.00006721,-0.00001182,-0.00009891,0.00
 014938,0.00001198,0.00001913,-0.00001833,-0.00000893,-0.00004491,-0.00
 021153,0.00026602,-0.00047576,0.00007927,0.00003455,0.00016567,0.00010
 477,-0.00008069,0.00011565,-0.00025095,0.00063441,-0.00018031,0.000222
 80,-0.00044412,0.00015989,0.00005263,-0.00003169,0.00003981,0.00066649
 ,0.00037688,0.00004967,-0.00019550,-0.00022242,-0.00013672,-0.00010360
 ,0.00001037,-0.00018279,0.00075039,0.00036778,-0.00010386,0.00010063,0
 .00003652,0.00027294,0.00048422,-0.00062716,0.00069033,-0.00284947,-0.
 00032149,0.00196151,0.00025623,0.00194968,-0.00515211,-0.00008372,-0.0
 0102091,0.00011299,0.00049407,0.00061886,0.00026371,0.00122518,-0.0035
 2043,-0.00097700,-0.00091157,0.00015526,0.00012680,-0.00009556,0.00097
 062,-0.00035591,-0.00006445,0.00002658,-0.00013003,0.00007527,0.000295
 72,-0.00012139,0.00008721,-0.00078367,0.00042191,-0.00006056,-0.000043
 30,0.00002559,-0.00013987,0.00010392,-0.00002292,0.00065461,0.00014998
 ,-0.00016071,-0.00025562,-0.00010709,-0.00002033,-0.00041360,-0.000149
 16,-0.00011325,-0.00330440,0.03567694,0.01335333,-0.01057194,-0.003536
 95,0.00397140,-0.41577412,0.44404186,0.21106213,0.00493878,0.00370006,
 -0.00207429,0.42573050,0.00018728,0.00000829,-0.00001297,0.00005539,0.
 00001783,0.00003267,-0.00002779,0.00011851,-0.00013255,0.00012187,0.00
 006661,0.00000528,0.00000603,0.00005410,0.00007749,-0.00007946,0.00002
 244,0.00006069,-0.00003808,-0.00004933,0.00004634,-0.00014569,-0.00010
 216,-0.00000507,0.00035420,0.00010989,-0.00014386,0.00009255,0.0003113
 3,-0.00007487,-0.00029285,-0.00004072,-0.00009573,0.00032372,0.0003360
 5,-0.00040620,0.00034606,0.00035736,-0.00054262,-0.00005305,0.00002054
 ,-0.00007178,-0.00011011,0.00011644,0.00010919,-0.00012960,-0.00000204
 ,-0.00000475,0.00002839,-0.00007898,-0.00000343,0.00019298,-0.00026879
 ,0.00047629,-0.00009248,-0.00003506,-0.00018624,-0.00010195,0.00007759
 ,-0.00015771,0.00028218,-0.00073847,0.00020747,-0.00025742,0.00051549,
 -0.00018556,-0.00005745,0.00003272,-0.00004348,-0.00019703,-0.00004717
 ,0.00000330,0.00011717,0.00004533,-0.00010776,0.00010850,0.00007393,0.
 00017977,-0.00073769,-0.00060238,0.00031573,-0.00008349,0.00019144,-0.
 00040240,-0.00048568,0.00054219,-0.00067581,0.00321793,0.00041301,-0.0
 0252591,-0.00016654,-0.00196215,0.00668679,-0.00002816,0.00083774,0.00
 026831,-0.00171993,0.00050698,-0.00034753,-0.00356571,0.00037408,0.001
 23582,0.00181045,-0.00035819,0.00037851,-0.00014469,-0.00106292,0.0002
 1182,0.00003684,0.00001937,0.00018318,-0.00007612,-0.00033953,0.000123
 41,-0.00022140,0.00068774,-0.00042648,0.00008635,0.00004641,-0.0000200
 4,0.00017410,-0.00009646,0.00001737,-0.00070823,-0.00018201,0.00018521
 ,0.00026155,0.00009903,0.00002909,0.00046518,0.00016860,0.00012446,0.0
 3372664,-0.03044110,-0.02441101,0.00662265,0.01336337,-0.00163266,0.44
 325117,-0.55874385,-0.24016790,-0.00474578,-0.00650341,0.00177342,-0.4
 7760278,0.58212033,0.00009238,0.00002286,0.00001408,0.00002209,0.00000
 548,-0.00000347,0.00001912,0.00004413,-0.00004122,0.00006485,0.0000425
 2,-0.00001380,0.00001312,0.00002050,0.00005078,-0.00009765,0.00010176,
 -0.00005916,-0.00001200,-0.00000301,-0.00000684,-0.00008304,-0.0000486
 3,-0.00002595,0.00023823,0.00007762,-0.00011721,-0.00003792,0.00011827
 ,-0.00008396,-0.00016464,0.00000624,-0.00000348,0.00017915,0.00014692,
 -0.00027264,0.00006546,0.00006408,-0.00011951,-0.00002318,0.00000331,-
 0.00002324,-0.00001712,0.00008524,0.00010443,-0.00005243,0.00001197,0.
 00002858,-0.00007290,-0.00002370,-0.00002249,0.00015275,-0.00016073,0.
 00025958,-0.00004062,-0.00001460,-0.00010189,-0.00006395,0.00004161,-0
 .00005652,0.00013620,-0.00038688,0.00012300,-0.00013092,0.00026320,-0.
 00009426,-0.00001471,0.00001154,-0.00002123,-0.00001096,0.00025429,0.0
 0018877,0.00031576,0.00004064,-0.00006956,0.00003351,0.00008159,-0.000
 00324,-0.00069600,-0.00049021,0.00011022,0.00009047,-0.00001947,-0.000
 26349,-0.00015568,0.00034940,-0.00049499,0.00181079,0.00014438,-0.0013
 1233,-0.00197267,0.00118430,0.00473156,-0.00020475,-0.00001904,0.00024
 206,0.00081446,0.00054481,-0.00077867,-0.00312149,-0.00012175,-0.00116
 217,0.00041153,0.00018132,0.00030155,0.00014094,0.00002062,0.00016103,
 0.00001324,-0.00007856,0.00002940,-0.00000537,-0.00023830,0.00002584,-
 0.00012615,0.00034891,-0.00021500,0.00004008,0.00003061,-0.00000572,0.
 00008556,-0.00006323,0.00001322,-0.00035907,-0.00007522,0.00008197,0.0
 0012803,0.00003628,0.00001809,0.00023788,0.00009003,0.00006213,0.01294
 828,-0.02285411,0.00807326,0.00587283,0.00125087,-0.00292817,0.2096099
 2,-0.23928559,-0.14744886,-0.00266461,-0.00179496,0.00136781,-0.223408
 78,0.26005268,0.13976169\\0.00000315,0.00000719,-0.00000273,0.00000153
 ,-0.00000196,0.00000093,0.00000116,-0.00001124,-0.00000195,-0.00000424
 ,0.00000003,0.00000201,-0.00000745,-0.00000287,0.00000054,-0.00001355,
 0.00002204,-0.00000465,-0.00000054,0.00000006,-0.00000004,-0.00000121,
 -0.00000341,-0.00000028,0.00001238,0.00000916,-0.00000050,0.00000240,0
 .00000589,-0.00000359,-0.00000440,-0.00000201,0.00000162,0.00001208,-0
 .00000146,0.00000867,-0.00000672,-0.00000103,-0.00000412,-0.00000008,0
 .00000280,-0.00000277,-0.00000118,0.00000194,-0.00000235,-0.00000182,-
 0.00000411,0.00000073,0.00000296,-0.00000182,0.00000270,0.00000503,-0.
 00000690,0.00001168,-0.00000306,0.00000026,-0.00000139,0.00000328,-0.0
 0000318,0.00000169,-0.00000045,-0.00000221,-0.00000288,-0.00000080,0.0
 0000052,0.00000150,0.00000230,0.00000348,0.00000217,-0.00001031,-0.000
 00782,-0.00000587,0.00000440,-0.00000011,-0.00000453,0.00000019,-0.000
 00622,0.00000872,-0.00000024,-0.00000263,-0.00000404,0.00001231,-0.000
 00289,0.00000311,0.00000009,-0.00000181,-0.00000168,-0.00000232,0.0000
 2729,-0.00000317,-0.00001405,-0.00001295,-0.00000332,-0.00000712,0.000
 00597,0.00000597,0.00000087,0.00000089,0.00000116,-0.00000174,-0.00000
 132,-0.00000224,-0.00000493,-0.00000039,0.00000318,0.00001586,-0.00000
 156,-0.00001393,-0.00000041,-0.00000029,0.00000153,0.00000077,-0.00000
 030,0.00000668,0.00000086,0.00000271,-0.00000260,-0.00000205,-0.000000
 79,-0.00000135,-0.00000077,-0.00000121,0.00000121,0.00000129,-0.000001
 06,0.00000496,-0.00000003,0.00000412,-0.00000239,0.00000018,0.00000147
 ,-0.00000138,0.00001353,-0.00001591,0.00000484,-0.00000880,-0.00001206
 ,0.00000738,-0.00001105,0.00001711,-0.00000032,0.00000616,0.00000857,-
 0.00000554,0.00000652,-0.00000999,-0.00000338\\\@
 The archive entry for this job was punched.


 AND THIS OUR LIFE, EXEMPT FROM PUBLIC HAUNT,
 FINDS TONGUES IN TREES, BOOKS IN THE RUNNING BROOKS,
 SERMONS IN STONES, AND GOOD IN EVERYTHING.
 I WOULD NOT CHANGE IT. -- W. SHAKESPEARE
 AS YOU LIKE IT, ACT II, SCENE 1.
 Job cpu time:       2 days  4 hours 18 minutes 28.9 seconds.
 Elapsed time:       0 days  1 hours  5 minutes 33.8 seconds.
 File lengths (MBytes):  RWF=   6394 Int=      0 D2E=      0 Chk=     80 Scr=      2
 Normal termination of Gaussian 16 at Sun Dec 25 12:13:22 2022.
