 Entering Gaussian System, Link 0=/apps/GAU16/avx2/g16/g16
 Initial command:
 /apps/GAU16/avx2//g16/l1.exe "/localscratch/chesayan/sagar/Gau-205412.inp" -scrdir="/localscratch/chesayan/sagar/"
 Entering Link 1 = /apps/GAU16/avx2//g16/l1.exe PID=    205414.
  
 Copyright (c) 1988-2019, Gaussian, Inc.  All Rights Reserved.
  
 This is part of the Gaussian(R) 16 program.  It is based on
 the Gaussian(R) 09 system (copyright 2009, Gaussian, Inc.),
 the Gaussian(R) 03 system (copyright 2003, Gaussian, Inc.),
 the Gaussian(R) 98 system (copyright 1998, Gaussian, Inc.),
 the Gaussian(R) 94 system (copyright 1995, Gaussian, Inc.),
 the Gaussian 92(TM) system (copyright 1992, Gaussian, Inc.),
 the Gaussian 90(TM) system (copyright 1990, Gaussian, Inc.),
 the Gaussian 88(TM) system (copyright 1988, Gaussian, Inc.),
 the Gaussian 86(TM) system (copyright 1986, Carnegie Mellon
 University), and the Gaussian 82(TM) system (copyright 1983,
 Carnegie Mellon University). Gaussian is a federally registered
 trademark of Gaussian, Inc.
  
 This software contains proprietary and confidential information,
 including trade secrets, belonging to Gaussian, Inc.
  
 This software is provided under written license and may be
 used, copied, transmitted, or stored only in accord with that
 written license.
  
 The following legend is applicable only to US Government
 contracts under FAR:
  
                    RESTRICTED RIGHTS LEGEND
  
 Use, reproduction and disclosure by the US Government is
 subject to restrictions as set forth in subparagraphs (a)
 and (c) of the Commercial Computer Software - Restricted
 Rights clause in FAR 52.227-19.
  
 Gaussian, Inc.
 340 Quinnipiac St., Bldg. 40, Wallingford CT 06492
  
  
 ---------------------------------------------------------------
 Warning -- This program may not be used in any manner that
 competes with the business of Gaussian, Inc. or will provide
 assistance to any competitor of Gaussian, Inc.  The licensee
 of this program is prohibited from giving any competitor of
 Gaussian, Inc. access to this program.  By using this program,
 the user acknowledges that Gaussian, Inc. is engaged in the
 business of creating and licensing software in the field of
 computational chemistry and represents and warrants to the
 licensee that it is not a competitor of Gaussian, Inc. and that
 it will not use this program in any manner prohibited above.
 ---------------------------------------------------------------
  

 Cite this work as:
 Gaussian 16, Revision C.01,
 M. J. Frisch, G. W. Trucks, H. B. Schlegel, G. E. Scuseria, 
 M. A. Robb, J. R. Cheeseman, G. Scalmani, V. Barone, 
 G. A. Petersson, H. Nakatsuji, X. Li, M. Caricato, A. V. Marenich, 
 J. Bloino, B. G. Janesko, R. Gomperts, B. Mennucci, H. P. Hratchian, 
 J. V. Ortiz, A. F. Izmaylov, J. L. Sonnenberg, D. Williams-Young, 
 F. Ding, F. Lipparini, F. Egidi, J. Goings, B. Peng, A. Petrone, 
 T. Henderson, D. Ranasinghe, V. G. Zakrzewski, J. Gao, N. Rega, 
 G. Zheng, W. Liang, M. Hada, M. Ehara, K. Toyota, R. Fukuda, 
 J. Hasegawa, M. Ishida, T. Nakajima, Y. Honda, O. Kitao, H. Nakai, 
 T. Vreven, K. Throssell, J. A. Montgomery, Jr., J. E. Peralta, 
 F. Ogliaro, M. J. Bearpark, J. J. Heyd, E. N. Brothers, K. N. Kudin, 
 V. N. Staroverov, T. A. Keith, R. Kobayashi, J. Normand, 
 K. Raghavachari, A. P. Rendell, J. C. Burant, S. S. Iyengar, 
 J. Tomasi, M. Cossi, J. M. Millam, M. Klene, C. Adamo, R. Cammi, 
 J. W. Ochterski, R. L. Martin, K. Morokuma, O. Farkas, 
 J. B. Foresman, and D. J. Fox, Gaussian, Inc., Wallingford CT, 2019.
 
 ******************************************
 Gaussian 16:  ES64L-G16RevC.01  3-Jul-2019
                26-Dec-2022 
 ******************************************
 %nprocshared=48
 Will use up to   48 processors via shared memory.
 %mem=100GB
 ---------------------------------------------------------
 # opt freq b3lyp/gen nosymm pseudo=read scf=maxcycles=500
 ---------------------------------------------------------
 1/18=20,19=15,26=3,38=1/1,3;
 2/9=110,12=2,15=1,17=6,18=5,40=1/2;
 3/5=7,11=2,16=1,17=8,25=1,30=1,71=1,74=-5/1,2,3;
 4//1;
 5/5=2,7=500,38=5/2;
 6/7=2,8=2,9=2,10=2,28=1/1;
 7/30=1/1,2,3,16;
 1/18=20,19=15,26=3/3(2);
 2/9=110,15=1/2;
 99//99;
 2/9=110,15=1/2;
 3/5=7,6=1,11=2,16=1,17=8,25=1,30=1,71=1,74=-5,82=7/1,2,3;
 4/5=5,16=3,69=1/1;
 5/5=2,7=500,38=5/2;
 7/30=1/1,2,3,16;
 1/18=20,19=15,26=3/3(-5);
 2/9=110,15=1/2;
 6/7=2,8=2,9=2,10=2,19=2,28=1/1;
 99/9=1/99;
 -------------------
 Title Card Required
 -------------------
 Symbolic Z-matrix:
 Charge =  0 Multiplicity = 1
 42                    0.66082   1.34178   12.1824 
 16                    1.47508   3.50618   12.69419 
 16                   -1.55868   1.49266   12.93004 
 16                   -0.105     1.0163    9.95958 
 16                    2.61431  -0.03926   11.50114 
 42                   -1.94871   2.43444   10.70215 
 16                   -2.46089   2.19766   8.39061 
 16                   -1.11687   4.52168   10.84457 
 42                    1.00092   3.20629   10.30473 
 16                    0.33783   3.70212   7.9342 
 16                    2.98735   2.23308   9.2953 
 42                    3.3147    2.4513    11.68055 
 42                   -1.97459   4.57038   8.44022 
 16                    4.44647   1.98093   13.8924 
 16                    4.86223   4.21573   11.64787 
 16                   -3.87209   5.79592   9.40254 
 16                   -0.71295   6.77628   8.627 
 42                   -4.29198   3.43325   9.34083 
 16                   -6.75732   4.33929   9.95211 
 16                   -4.20237   2.67818   11.49435 
 42                    3.11588   0.19274   13.74424 
 16                    4.00487  -1.53836   14.59014 
 16                    1.13842   0.62662   14.64296 
 42                    1.4804    5.9403    7.63218 
 16                    0.68392   5.73522   5.33012 
 16                    1.7976    5.65875   10.24225 
 42                    3.61738   4.49726   9.69905 
 16                    3.47209   4.5584    7.18118 
 16                    5.2106    6.50764   9.47846 
 42                    4.18072   6.75478   7.53936 
 16                    5.50009   7.44649   5.86078 
 16                    2.35091   8.23921   7.86478 
 42                    1.39853   7.93745   5.7056 
 16                    2.84825   8.51631   4.09425 
 16                   -0.56185   8.97953   5.67461 
 42                   -1.31767   6.68104   6.46446 
 16                   -2.25519   4.51322   6.01615 
 16                   -3.40307   7.9262    6.52102 
 42                   -3.97299   5.82425   7.02377 
 16                   -5.81039   5.11227   5.51478 
 16                   -6.50204   6.41473   7.02228 
 42                   -6.90155   4.11414   7.78043 
 16                   -5.41435   2.3529    7.51539 
 16                   -8.86294   3.52633   7.2801 
 42                    4.77166   7.38762   3.70391 
 

 GradGradGradGradGradGradGradGradGradGradGradGradGradGradGradGradGradGrad
 Berny optimization.
 Initialization pass.
                           ----------------------------
                           !    Initial Parameters    !
                           ! (Angstroms and Degrees)  !
 --------------------------                            --------------------------
 ! Name  Definition              Value          Derivative Info.                !
 --------------------------------------------------------------------------------
 ! R1    R(1,2)                  2.3685         estimate D2E/DX2                !
 ! R2    R(1,3)                  2.3469         estimate D2E/DX2                !
 ! R3    R(1,4)                  2.3735         estimate D2E/DX2                !
 ! R4    R(1,5)                  2.4875         estimate D2E/DX2                !
 ! R5    R(1,9)                  2.6679         estimate D2E/DX2                !
 ! R6    R(1,12)                 2.9199         estimate D2E/DX2                !
 ! R7    R(1,23)                 2.6065         estimate D2E/DX2                !
 ! R8    R(2,9)                  2.4544         estimate D2E/DX2                !
 ! R9    R(2,12)                 2.3504         estimate D2E/DX2                !
 ! R10   R(3,6)                  2.45           estimate D2E/DX2                !
 ! R11   R(4,6)                  2.4417         estimate D2E/DX2                !
 ! R12   R(4,9)                  2.4776         estimate D2E/DX2                !
 ! R13   R(5,12)                 2.5934         estimate D2E/DX2                !
 ! R14   R(5,21)                 2.3102         estimate D2E/DX2                !
 ! R15   R(6,7)                  2.3794         estimate D2E/DX2                !
 ! R16   R(6,8)                  2.2514         estimate D2E/DX2                !
 ! R17   R(6,9)                  3.0747         estimate D2E/DX2                !
 ! R18   R(6,13)                 3.1111         estimate D2E/DX2                !
 ! R19   R(6,18)                 2.8882         estimate D2E/DX2                !
 ! R20   R(6,20)                 2.4012         estimate D2E/DX2                !
 ! R21   R(7,13)                 2.4225         estimate D2E/DX2                !
 ! R22   R(7,18)                 2.4047         estimate D2E/DX2                !
 ! R23   R(8,9)                  2.5508         estimate D2E/DX2                !
 ! R24   R(8,13)                 2.5532         estimate D2E/DX2                !
 ! R25   R(9,10)                 2.511          estimate D2E/DX2                !
 ! R26   R(9,11)                 2.4315         estimate D2E/DX2                !
 ! R27   R(9,12)                 2.7958         estimate D2E/DX2                !
 ! R28   R(9,26)                 2.5794         estimate D2E/DX2                !
 ! R29   R(9,27)                 2.9798         estimate D2E/DX2                !
 ! R30   R(10,13)                2.5213         estimate D2E/DX2                !
 ! R31   R(10,24)                2.531          estimate D2E/DX2                !
 ! R32   R(11,12)                2.4175         estimate D2E/DX2                !
 ! R33   R(11,27)                2.3846         estimate D2E/DX2                !
 ! R34   R(12,14)                2.5287         estimate D2E/DX2                !
 ! R35   R(12,15)                2.3472         estimate D2E/DX2                !
 ! R36   R(12,21)                3.0658         estimate D2E/DX2                !
 ! R37   R(12,27)                2.8642         estimate D2E/DX2                !
 ! R38   R(13,16)                2.4553         estimate D2E/DX2                !
 ! R39   R(13,17)                2.5481         estimate D2E/DX2                !
 ! R40   R(13,18)                2.734          estimate D2E/DX2                !
 ! R41   R(13,36)                2.9648         estimate D2E/DX2                !
 ! R42   R(13,37)                2.4409         estimate D2E/DX2                !
 ! R43   R(13,39)                2.7518         estimate D2E/DX2                !
 ! R44   R(14,21)                2.2338         estimate D2E/DX2                !
 ! R45   R(15,27)                2.3295         estimate D2E/DX2                !
 ! R46   R(16,18)                2.4005         estimate D2E/DX2                !
 ! R47   R(16,39)                2.3811         estimate D2E/DX2                !
 ! R48   R(17,24)                2.5494         estimate D2E/DX2                !
 ! R49   R(17,36)                2.2475         estimate D2E/DX2                !
 ! R50   R(18,19)                2.6968         estimate D2E/DX2                !
 ! R51   R(18,20)                2.2838         estimate D2E/DX2                !
 ! R52   R(18,42)                3.1158         estimate D2E/DX2                !
 ! R53   R(18,43)                2.3998         estimate D2E/DX2                !
 ! R54   R(19,42)                2.1881         estimate D2E/DX2                !
 ! R55   R(21,22)                2.1219         estimate D2E/DX2                !
 ! R56   R(21,23)                2.215          estimate D2E/DX2                !
 ! R57   R(24,25)                2.4446         estimate D2E/DX2                !
 ! R58   R(24,26)                2.6443         estimate D2E/DX2                !
 ! R59   R(24,28)                2.4657         estimate D2E/DX2                !
 ! R60   R(24,30)                2.822          estimate D2E/DX2                !
 ! R61   R(24,32)                2.4692         estimate D2E/DX2                !
 ! R62   R(24,33)                2.7762         estimate D2E/DX2                !
 ! R63   R(25,33)                2.3455         estimate D2E/DX2                !
 ! R64   R(25,36)                2.4875         estimate D2E/DX2                !
 ! R65   R(26,27)                2.2261         estimate D2E/DX2                !
 ! R66   R(27,28)                2.5228         estimate D2E/DX2                !
 ! R67   R(27,29)                2.5746         estimate D2E/DX2                !
 ! R68   R(28,30)                2.3355         estimate D2E/DX2                !
 ! R69   R(29,30)                2.2095         estimate D2E/DX2                !
 ! R70   R(30,31)                2.2443         estimate D2E/DX2                !
 ! R71   R(30,32)                2.3786         estimate D2E/DX2                !
 ! R72   R(31,45)                2.2773         estimate D2E/DX2                !
 ! R73   R(32,33)                2.3791         estimate D2E/DX2                !
 ! R74   R(33,34)                2.2435         estimate D2E/DX2                !
 ! R75   R(33,35)                2.2204         estimate D2E/DX2                !
 ! R76   R(33,36)                3.0874         estimate D2E/DX2                !
 ! R77   R(34,45)                2.264          estimate D2E/DX2                !
 ! R78   R(35,36)                2.5452         estimate D2E/DX2                !
 ! R79   R(36,37)                2.404          estimate D2E/DX2                !
 ! R80   R(36,38)                2.4295         estimate D2E/DX2                !
 ! R81   R(36,39)                2.8456         estimate D2E/DX2                !
 ! R82   R(37,39)                2.3843         estimate D2E/DX2                !
 ! R83   R(38,39)                2.2351         estimate D2E/DX2                !
 ! R84   R(39,40)                2.4819         estimate D2E/DX2                !
 ! R85   R(39,41)                2.5971         estimate D2E/DX2                !
 ! R86   R(40,41)                2.1089         estimate D2E/DX2                !
 ! R87   R(40,42)                2.7056         estimate D2E/DX2                !
 ! R88   R(41,42)                2.455          estimate D2E/DX2                !
 ! R89   R(42,43)                2.3203         estimate D2E/DX2                !
 ! R90   R(42,44)                2.1078         estimate D2E/DX2                !
 ! A1    A(2,1,3)              101.3933         estimate D2E/DX2                !
 ! A2    A(2,1,4)              116.0156         estimate D2E/DX2                !
 ! A3    A(2,1,5)              107.2506         estimate D2E/DX2                !
 ! A4    A(2,1,23)              89.069          estimate D2E/DX2                !
 ! A5    A(3,1,4)               90.1157         estimate D2E/DX2                !
 ! A6    A(3,1,5)              149.9565         estimate D2E/DX2                !
 ! A7    A(3,1,9)              107.4477         estimate D2E/DX2                !
 ! A8    A(3,1,12)             152.8572         estimate D2E/DX2                !
 ! A9    A(3,1,23)              83.6961         estimate D2E/DX2                !
 ! A10   A(4,1,5)               85.4555         estimate D2E/DX2                !
 ! A11   A(4,1,12)             100.6265         estimate D2E/DX2                !
 ! A12   A(4,1,23)             154.9022         estimate D2E/DX2                !
 ! A13   A(5,1,9)               95.4595         estimate D2E/DX2                !
 ! A14   A(5,1,23)              87.8401         estimate D2E/DX2                !
 ! A15   A(9,1,23)             146.3855         estimate D2E/DX2                !
 ! A16   A(12,1,23)             95.7371         estimate D2E/DX2                !
 ! A17   A(1,3,6)               83.4299         estimate D2E/DX2                !
 ! A18   A(1,4,6)               83.0601         estimate D2E/DX2                !
 ! A19   A(1,5,21)              81.3053         estimate D2E/DX2                !
 ! A20   A(3,6,4)               86.163          estimate D2E/DX2                !
 ! A21   A(3,6,7)              151.5717         estimate D2E/DX2                !
 ! A22   A(3,6,8)              103.8883         estimate D2E/DX2                !
 ! A23   A(3,6,9)               93.5154         estimate D2E/DX2                !
 ! A24   A(3,6,13)             157.8738         estimate D2E/DX2                !
 ! A25   A(3,6,18)             133.6854         estimate D2E/DX2                !
 ! A26   A(3,6,20)              83.5939         estimate D2E/DX2                !
 ! A27   A(4,6,7)               79.006          estimate D2E/DX2                !
 ! A28   A(4,6,8)              106.1829         estimate D2E/DX2                !
 ! A29   A(4,6,13)             100.5982         estimate D2E/DX2                !
 ! A30   A(4,6,18)             132.0779         estimate D2E/DX2                !
 ! A31   A(4,6,20)             150.2244         estimate D2E/DX2                !
 ! A32   A(7,6,8)              103.4878         estimate D2E/DX2                !
 ! A33   A(7,6,9)               96.0794         estimate D2E/DX2                !
 ! A34   A(7,6,20)              97.3874         estimate D2E/DX2                !
 ! A35   A(8,6,18)              90.5142         estimate D2E/DX2                !
 ! A36   A(8,6,20)             103.4028         estimate D2E/DX2                !
 ! A37   A(9,6,13)              75.0285         estimate D2E/DX2                !
 ! A38   A(9,6,18)             129.0926         estimate D2E/DX2                !
 ! A39   A(9,6,20)             156.565          estimate D2E/DX2                !
 ! A40   A(13,6,20)             99.3442         estimate D2E/DX2                !
 ! A41   A(9,8,13)              95.1318         estimate D2E/DX2                !
 ! A42   A(1,9,6)               67.1264         estimate D2E/DX2                !
 ! A43   A(1,9,8)               96.0618         estimate D2E/DX2                !
 ! A44   A(1,9,10)             140.2438         estimate D2E/DX2                !
 ! A45   A(1,9,11)              96.6961         estimate D2E/DX2                !
 ! A46   A(1,9,26)             136.1289         estimate D2E/DX2                !
 ! A47   A(1,9,27)             123.9012         estimate D2E/DX2                !
 ! A48   A(2,9,4)              109.2598         estimate D2E/DX2                !
 ! A49   A(2,9,6)               95.1729         estimate D2E/DX2                !
 ! A50   A(2,9,8)               83.7626         estimate D2E/DX2                !
 ! A51   A(2,9,10)             161.0791         estimate D2E/DX2                !
 ! A52   A(2,9,11)             107.1718         estimate D2E/DX2                !
 ! A53   A(2,9,26)              81.2422         estimate D2E/DX2                !
 ! A54   A(2,9,27)              88.5856         estimate D2E/DX2                !
 ! A55   A(4,9,8)               96.5866         estimate D2E/DX2                !
 ! A56   A(4,9,10)              85.7074         estimate D2E/DX2                !
 ! A57   A(4,9,11)              87.3085         estimate D2E/DX2                !
 ! A58   A(4,9,12)             101.4941         estimate D2E/DX2                !
 ! A59   A(4,9,27)             138.2951         estimate D2E/DX2                !
 ! A60   A(6,9,10)              85.3116         estimate D2E/DX2                !
 ! A61   A(6,9,11)             137.4692         estimate D2E/DX2                !
 ! A62   A(6,9,12)             131.4924         estimate D2E/DX2                !
 ! A63   A(6,9,26)             122.5552         estimate D2E/DX2                !
 ! A64   A(8,9,10)              83.0343         estimate D2E/DX2                !
 ! A65   A(8,9,12)             136.237          estimate D2E/DX2                !
 ! A66   A(8,9,26)              76.7772         estimate D2E/DX2                !
 ! A67   A(8,9,27)             123.2717         estimate D2E/DX2                !
 ! A68   A(10,9,11)             84.4248         estimate D2E/DX2                !
 ! A69   A(10,9,12)            137.4302         estimate D2E/DX2                !
 ! A70   A(10,9,26)             82.5855         estimate D2E/DX2                !
 ! A71   A(10,9,27)             87.3886         estimate D2E/DX2                !
 ! A72   A(11,9,26)             96.7865         estimate D2E/DX2                !
 ! A73   A(12,9,26)             90.7483         estimate D2E/DX2                !
 ! A74   A(9,10,13)             96.9338         estimate D2E/DX2                !
 ! A75   A(9,10,24)             99.6747         estimate D2E/DX2                !
 ! A76   A(13,10,24)            97.6687         estimate D2E/DX2                !
 ! A77   A(1,12,11)             90.6994         estimate D2E/DX2                !
 ! A78   A(1,12,14)            100.7061         estimate D2E/DX2                !
 ! A79   A(1,12,15)            152.534          estimate D2E/DX2                !
 ! A80   A(1,12,21)             62.9636         estimate D2E/DX2                !
 ! A81   A(1,12,27)            119.1024         estimate D2E/DX2                !
 ! A82   A(2,12,5)             104.446          estimate D2E/DX2                !
 ! A83   A(2,12,11)            111.1026         estimate D2E/DX2                !
 ! A84   A(2,12,14)             93.2425         estimate D2E/DX2                !
 ! A85   A(2,12,15)            100.6412         estimate D2E/DX2                !
 ! A86   A(2,12,21)             89.403          estimate D2E/DX2                !
 ! A87   A(2,12,27)             93.4668         estimate D2E/DX2                !
 ! A88   A(5,12,9)              90.1024         estimate D2E/DX2                !
 ! A89   A(5,12,11)             78.9589         estimate D2E/DX2                !
 ! A90   A(5,12,14)             90.1576         estimate D2E/DX2                !
 ! A91   A(5,12,15)            154.0307         estimate D2E/DX2                !
 ! A92   A(5,12,27)            131.8105         estimate D2E/DX2                !
 ! A93   A(9,12,14)            148.3283         estimate D2E/DX2                !
 ! A94   A(9,12,15)            109.6208         estimate D2E/DX2                !
 ! A95   A(9,12,21)            118.458          estimate D2E/DX2                !
 ! A96   A(11,12,14)           155.0732         estimate D2E/DX2                !
 ! A97   A(11,12,15)            98.2444         estimate D2E/DX2                !
 ! A98   A(11,12,21)           126.0769         estimate D2E/DX2                !
 ! A99   A(14,12,15)            81.7738         estimate D2E/DX2                !
 ! A100  A(14,12,27)           133.6846         estimate D2E/DX2                !
 ! A101  A(15,12,21)           127.2949         estimate D2E/DX2                !
 ! A102  A(6,13,10)             84.3682         estimate D2E/DX2                !
 ! A103  A(6,13,16)             93.6785         estimate D2E/DX2                !
 ! A104  A(6,13,17)            122.4756         estimate D2E/DX2                !
 ! A105  A(6,13,37)            134.9832         estimate D2E/DX2                !
 ! A106  A(6,13,39)            133.8772         estimate D2E/DX2                !
 ! A107  A(7,13,8)              93.9014         estimate D2E/DX2                !
 ! A108  A(7,13,10)             80.9506         estimate D2E/DX2                !
 ! A109  A(7,13,16)            109.9845         estimate D2E/DX2                !
 ! A110  A(7,13,17)            161.5871         estimate D2E/DX2                !
 ! A111  A(7,13,36)            136.7267         estimate D2E/DX2                !
 ! A112  A(7,13,37)             86.1955         estimate D2E/DX2                !
 ! A113  A(7,13,39)            106.8559         estimate D2E/DX2                !
 ! A114  A(8,13,10)             82.7805         estimate D2E/DX2                !
 ! A115  A(8,13,16)             84.264          estimate D2E/DX2                !
 ! A116  A(8,13,17)             77.3585         estimate D2E/DX2                !
 ! A117  A(8,13,18)             88.0865         estimate D2E/DX2                !
 ! A118  A(8,13,36)            124.52           estimate D2E/DX2                !
 ! A119  A(8,13,39)            137.5095         estimate D2E/DX2                !
 ! A120  A(10,13,16)           163.6017         estimate D2E/DX2                !
 ! A121  A(10,13,17)            81.8786         estimate D2E/DX2                !
 ! A122  A(10,13,18)           134.4493         estimate D2E/DX2                !
 ! A123  A(10,13,36)            84.7328         estimate D2E/DX2                !
 ! A124  A(10,13,37)            84.1489         estimate D2E/DX2                !
 ! A125  A(10,13,39)           136.026          estimate D2E/DX2                !
 ! A126  A(16,13,17)            85.5151         estimate D2E/DX2                !
 ! A127  A(16,13,36)            94.4207         estimate D2E/DX2                !
 ! A128  A(16,13,37)           108.1843         estimate D2E/DX2                !
 ! A129  A(17,13,18)           139.0801         estimate D2E/DX2                !
 ! A130  A(17,13,37)            98.6263         estimate D2E/DX2                !
 ! A131  A(17,13,39)            90.1626         estimate D2E/DX2                !
 ! A132  A(18,13,36)           134.7035         estimate D2E/DX2                !
 ! A133  A(18,13,37)           102.7066         estimate D2E/DX2                !
 ! A134  A(18,13,39)            75.1382         estimate D2E/DX2                !
 ! A135  A(18,16,39)            88.7746         estimate D2E/DX2                !
 ! A136  A(13,17,24)            96.5172         estimate D2E/DX2                !
 ! A137  A(24,17,36)            80.9163         estimate D2E/DX2                !
 ! A138  A(6,18,16)            100.7392         estimate D2E/DX2                !
 ! A139  A(6,18,19)            138.6814         estimate D2E/DX2                !
 ! A140  A(6,18,43)            125.612          estimate D2E/DX2                !
 ! A141  A(7,18,16)            112.5006         estimate D2E/DX2                !
 ! A142  A(7,18,19)            163.4016         estimate D2E/DX2                !
 ! A143  A(7,18,20)             99.9537         estimate D2E/DX2                !
 ! A144  A(7,18,42)            123.5142         estimate D2E/DX2                !
 ! A145  A(7,18,43)             79.877          estimate D2E/DX2                !
 ! A146  A(13,18,19)           135.2209         estimate D2E/DX2                !
 ! A147  A(13,18,20)           114.5114         estimate D2E/DX2                !
 ! A148  A(13,18,42)           117.004          estimate D2E/DX2                !
 ! A149  A(13,18,43)           109.4571         estimate D2E/DX2                !
 ! A150  A(16,18,19)            79.8283         estimate D2E/DX2                !
 ! A151  A(16,18,20)           107.1157         estimate D2E/DX2                !
 ! A152  A(16,18,42)            86.8063         estimate D2E/DX2                !
 ! A153  A(16,18,43)           122.9874         estimate D2E/DX2                !
 ! A154  A(19,18,20)            86.1703         estimate D2E/DX2                !
 ! A155  A(19,18,43)            84.0371         estimate D2E/DX2                !
 ! A156  A(20,18,42)           125.2637         estimate D2E/DX2                !
 ! A157  A(20,18,43)           125.9286         estimate D2E/DX2                !
 ! A158  A(5,21,14)            105.9092         estimate D2E/DX2                !
 ! A159  A(5,21,22)            113.3352         estimate D2E/DX2                !
 ! A160  A(5,21,23)            102.6972         estimate D2E/DX2                !
 ! A161  A(12,21,22)           147.3698         estimate D2E/DX2                !
 ! A162  A(12,21,23)           100.7605         estimate D2E/DX2                !
 ! A163  A(14,21,22)           112.1526         estimate D2E/DX2                !
 ! A164  A(14,21,23)           110.3682         estimate D2E/DX2                !
 ! A165  A(22,21,23)           111.8438         estimate D2E/DX2                !
 ! A166  A(1,23,21)             80.4625         estimate D2E/DX2                !
 ! A167  A(10,24,17)            81.6644         estimate D2E/DX2                !
 ! A168  A(10,24,25)            83.7482         estimate D2E/DX2                !
 ! A169  A(10,24,26)            80.9217         estimate D2E/DX2                !
 ! A170  A(10,24,28)            83.7345         estimate D2E/DX2                !
 ! A171  A(10,24,30)           133.7177         estimate D2E/DX2                !
 ! A172  A(10,24,33)           134.8822         estimate D2E/DX2                !
 ! A173  A(17,24,25)            96.5845         estimate D2E/DX2                !
 ! A174  A(17,24,26)            75.697          estimate D2E/DX2                !
 ! A175  A(17,24,28)           161.8221         estimate D2E/DX2                !
 ! A176  A(17,24,30)           137.8545         estimate D2E/DX2                !
 ! A177  A(17,24,32)            87.7795         estimate D2E/DX2                !
 ! A178  A(17,24,33)            90.5462         estimate D2E/DX2                !
 ! A179  A(25,24,26)           163.671          estimate D2E/DX2                !
 ! A180  A(25,24,28)            92.517          estimate D2E/DX2                !
 ! A181  A(25,24,30)           107.7584         estimate D2E/DX2                !
 ! A182  A(25,24,32)           106.3605         estimate D2E/DX2                !
 ! A183  A(26,24,28)            91.3735         estimate D2E/DX2                !
 ! A184  A(26,24,30)            87.0429         estimate D2E/DX2                !
 ! A185  A(26,24,32)            87.9291         estimate D2E/DX2                !
 ! A186  A(26,24,33)           139.9183         estimate D2E/DX2                !
 ! A187  A(28,24,32)           104.7293         estimate D2E/DX2                !
 ! A188  A(28,24,33)           107.4616         estimate D2E/DX2                !
 ! A189  A(30,24,33)            78.3322         estimate D2E/DX2                !
 ! A190  A(24,25,36)            78.5122         estimate D2E/DX2                !
 ! A191  A(9,26,24)             95.0539         estimate D2E/DX2                !
 ! A192  A(24,26,27)            84.9953         estimate D2E/DX2                !
 ! A193  A(9,27,15)            104.2892         estimate D2E/DX2                !
 ! A194  A(9,27,28)             99.369          estimate D2E/DX2                !
 ! A195  A(9,27,29)            154.0357         estimate D2E/DX2                !
 ! A196  A(11,27,15)            99.6763         estimate D2E/DX2                !
 ! A197  A(11,27,26)           108.7072         estimate D2E/DX2                !
 ! A198  A(11,27,28)            80.7242         estimate D2E/DX2                !
 ! A199  A(11,27,29)           152.9228         estimate D2E/DX2                !
 ! A200  A(12,27,26)            96.7477         estimate D2E/DX2                !
 ! A201  A(12,27,28)           134.5619         estimate D2E/DX2                !
 ! A202  A(12,27,29)           133.0342         estimate D2E/DX2                !
 ! A203  A(15,27,26)           107.2024         estimate D2E/DX2                !
 ! A204  A(15,27,28)           150.3005         estimate D2E/DX2                !
 ! A205  A(15,27,29)            80.5238         estimate D2E/DX2                !
 ! A206  A(26,27,28)           100.5917         estimate D2E/DX2                !
 ! A207  A(26,27,29)            96.8551         estimate D2E/DX2                !
 ! A208  A(28,27,29)            86.0551         estimate D2E/DX2                !
 ! A209  A(24,28,27)            82.9667         estimate D2E/DX2                !
 ! A210  A(27,28,30)            81.5037         estimate D2E/DX2                !
 ! A211  A(27,29,30)            82.7668         estimate D2E/DX2                !
 ! A212  A(24,30,29)           112.6357         estimate D2E/DX2                !
 ! A213  A(24,30,31)           132.5385         estimate D2E/DX2                !
 ! A214  A(28,30,29)            99.8363         estimate D2E/DX2                !
 ! A215  A(28,30,31)           110.7028         estimate D2E/DX2                !
 ! A216  A(28,30,32)           111.9919         estimate D2E/DX2                !
 ! A217  A(29,30,31)           114.6362         estimate D2E/DX2                !
 ! A218  A(29,30,32)           107.9578         estimate D2E/DX2                !
 ! A219  A(31,30,32)           111.2369         estimate D2E/DX2                !
 ! A220  A(30,31,45)           120.8214         estimate D2E/DX2                !
 ! A221  A(30,32,33)            96.006          estimate D2E/DX2                !
 ! A222  A(24,33,34)           131.6823         estimate D2E/DX2                !
 ! A223  A(24,33,35)           111.923          estimate D2E/DX2                !
 ! A224  A(24,33,36)            64.063          estimate D2E/DX2                !
 ! A225  A(25,33,32)           112.7268         estimate D2E/DX2                !
 ! A226  A(25,33,34)           108.9142         estimate D2E/DX2                !
 ! A227  A(25,33,35)            99.7547         estimate D2E/DX2                !
 ! A228  A(32,33,34)           111.1271         estimate D2E/DX2                !
 ! A229  A(32,33,35)           107.8531         estimate D2E/DX2                !
 ! A230  A(32,33,36)           100.412          estimate D2E/DX2                !
 ! A231  A(34,33,35)           116.066          estimate D2E/DX2                !
 ! A232  A(34,33,36)           148.2149         estimate D2E/DX2                !
 ! A233  A(33,34,45)           122.9683         estimate D2E/DX2                !
 ! A234  A(13,36,25)           102.2099         estimate D2E/DX2                !
 ! A235  A(13,36,33)           130.4236         estimate D2E/DX2                !
 ! A236  A(13,36,35)           156.2758         estimate D2E/DX2                !
 ! A237  A(13,36,38)            99.1582         estimate D2E/DX2                !
 ! A238  A(17,36,25)           103.7911         estimate D2E/DX2                !
 ! A239  A(17,36,33)            88.9997         estimate D2E/DX2                !
 ! A240  A(17,36,35)           100.3946         estimate D2E/DX2                !
 ! A241  A(17,36,37)           108.8185         estimate D2E/DX2                !
 ! A242  A(17,36,38)           100.768          estimate D2E/DX2                !
 ! A243  A(17,36,39)            94.2845         estimate D2E/DX2                !
 ! A244  A(25,36,35)            87.8741         estimate D2E/DX2                !
 ! A245  A(25,36,37)            83.4478         estimate D2E/DX2                !
 ! A246  A(25,36,38)           153.6602         estimate D2E/DX2                !
 ! A247  A(25,36,39)           136.5514         estimate D2E/DX2                !
 ! A248  A(33,36,37)           131.6218         estimate D2E/DX2                !
 ! A249  A(33,36,38)           123.5258         estimate D2E/DX2                !
 ! A250  A(35,36,37)           150.7227         estimate D2E/DX2                !
 ! A251  A(35,36,38)            78.4215         estimate D2E/DX2                !
 ! A252  A(35,36,39)           127.5889         estimate D2E/DX2                !
 ! A253  A(37,36,38)            97.5712         estimate D2E/DX2                !
 ! A254  A(13,39,38)           111.0461         estimate D2E/DX2                !
 ! A255  A(13,39,40)           136.0446         estimate D2E/DX2                !
 ! A256  A(13,39,41)           144.2039         estimate D2E/DX2                !
 ! A257  A(16,39,36)            99.23           estimate D2E/DX2                !
 ! A258  A(16,39,37)           112.6512         estimate D2E/DX2                !
 ! A259  A(16,39,38)           103.0085         estimate D2E/DX2                !
 ! A260  A(16,39,40)           129.4465         estimate D2E/DX2                !
 ! A261  A(16,39,41)            92.553          estimate D2E/DX2                !
 ! A262  A(36,39,40)           131.1225         estimate D2E/DX2                !
 ! A263  A(36,39,41)           147.1521         estimate D2E/DX2                !
 ! A264  A(37,39,38)           103.7884         estimate D2E/DX2                !
 ! A265  A(37,39,40)            96.8166         estimate D2E/DX2                !
 ! A266  A(37,39,41)           145.7273         estimate D2E/DX2                !
 ! A267  A(38,39,40)           108.7709         estimate D2E/DX2                !
 ! A268  A(38,39,41)            91.9692         estimate D2E/DX2                !
 ! A269  A(39,40,42)            83.9881         estimate D2E/DX2                !
 ! A270  A(39,41,42)            86.8604         estimate D2E/DX2                !
 ! A271  A(18,42,40)            99.3356         estimate D2E/DX2                !
 ! A272  A(18,42,41)           102.8941         estimate D2E/DX2                !
 ! A273  A(18,42,44)           146.8533         estimate D2E/DX2                !
 ! A274  A(19,42,40)           140.0483         estimate D2E/DX2                !
 ! A275  A(19,42,41)           101.4992         estimate D2E/DX2                !
 ! A276  A(19,42,43)            98.5821         estimate D2E/DX2                !
 ! A277  A(19,42,44)           109.0033         estimate D2E/DX2                !
 ! A278  A(40,42,43)            85.7493         estimate D2E/DX2                !
 ! A279  A(40,42,44)           106.2237         estimate D2E/DX2                !
 ! A280  A(41,42,43)           124.8705         estimate D2E/DX2                !
 ! A281  A(41,42,44)           109.8434         estimate D2E/DX2                !
 ! A282  A(43,42,44)           110.9542         estimate D2E/DX2                !
 ! A283  A(31,45,34)            95.4838         estimate D2E/DX2                !
 ! A284  L(4,9,26,2,-1)        190.502          estimate D2E/DX2                !
 ! A285  L(6,9,27,1,-1)        191.0276         estimate D2E/DX2                !
 ! A286  L(8,9,11,1,-1)        192.7578         estimate D2E/DX2                !
 ! A287  L(21,12,27,2,-1)      182.8699         estimate D2E/DX2                !
 ! A288  L(6,13,36,10,-1)      169.101          estimate D2E/DX2                !
 ! A289  L(8,13,37,7,-1)       180.0969         estimate D2E/DX2                !
 ! A290  L(6,18,42,16,-1)      187.5455         estimate D2E/DX2                !
 ! A291  L(10,24,32,17,-1)     169.4439         estimate D2E/DX2                !
 ! A292  L(33,36,39,17,-1)     183.2842         estimate D2E/DX2                !
 ! A293  L(4,9,26,2,-2)        187.652          estimate D2E/DX2                !
 ! A294  L(6,9,27,1,-2)        185.9885         estimate D2E/DX2                !
 ! A295  L(8,9,11,1,-2)        175.7079         estimate D2E/DX2                !
 ! A296  L(21,12,27,2,-2)      179.8378         estimate D2E/DX2                !
 ! A297  L(6,13,36,10,-2)      188.3666         estimate D2E/DX2                !
 ! A298  L(8,13,37,7,-2)       193.2845         estimate D2E/DX2                !
 ! A299  L(6,18,42,16,-2)      178.7874         estimate D2E/DX2                !
 ! A300  L(10,24,32,17,-2)     171.1192         estimate D2E/DX2                !
 ! A301  L(33,36,39,17,-2)     173.4057         estimate D2E/DX2                !
 ! D1    D(2,1,3,6)             85.4383         estimate D2E/DX2                !
 ! D2    D(4,1,3,6)            -31.1669         estimate D2E/DX2                !
 ! D3    D(5,1,3,6)           -112.2636         estimate D2E/DX2                !
 ! D4    D(9,1,3,6)             25.6916         estimate D2E/DX2                !
 ! D5    D(12,1,3,6)            82.9221         estimate D2E/DX2                !
 ! D6    D(23,1,3,6)           173.2069         estimate D2E/DX2                !
 ! D7    D(2,1,4,6)            -71.4442         estimate D2E/DX2                !
 ! D8    D(3,1,4,6)             31.3119         estimate D2E/DX2                !
 ! D9    D(5,1,4,6)           -178.436          estimate D2E/DX2                !
 ! D10   D(12,1,4,6)          -123.6168         estimate D2E/DX2                !
 ! D11   D(23,1,4,6)           106.5647         estimate D2E/DX2                !
 ! D12   D(2,1,5,21)            69.449          estimate D2E/DX2                !
 ! D13   D(3,1,5,21)           -92.3644         estimate D2E/DX2                !
 ! D14   D(4,1,5,21)          -174.6993         estimate D2E/DX2                !
 ! D15   D(9,1,5,21)           127.5625         estimate D2E/DX2                !
 ! D16   D(23,1,5,21)          -18.9043         estimate D2E/DX2                !
 ! D17   D(3,1,9,6)            -21.8676         estimate D2E/DX2                !
 ! D18   D(3,1,9,8)             14.7475         estimate D2E/DX2                !
 ! D19   D(3,1,9,10)           -71.6379         estimate D2E/DX2                !
 ! D20   D(3,1,9,11)          -160.9604         estimate D2E/DX2                !
 ! D21   D(3,1,9,26)            91.9537         estimate D2E/DX2                !
 ! D22   D(3,1,9,27)           152.1438         estimate D2E/DX2                !
 ! D23   D(5,1,9,6)            138.4489         estimate D2E/DX2                !
 ! D24   D(5,1,9,8)            175.064          estimate D2E/DX2                !
 ! D25   D(5,1,9,10)            88.6786         estimate D2E/DX2                !
 ! D26   D(5,1,9,11)            -0.6438         estimate D2E/DX2                !
 ! D27   D(5,1,9,26)          -107.7298         estimate D2E/DX2                !
 ! D28   D(5,1,9,27)           -47.5396         estimate D2E/DX2                !
 ! D29   D(23,1,9,6)          -127.2278         estimate D2E/DX2                !
 ! D30   D(23,1,9,8)           -90.6127         estimate D2E/DX2                !
 ! D31   D(23,1,9,10)         -176.9981         estimate D2E/DX2                !
 ! D32   D(23,1,9,11)           93.6795         estimate D2E/DX2                !
 ! D33   D(23,1,9,26)          -13.4065         estimate D2E/DX2                !
 ! D34   D(23,1,9,27)           46.7837         estimate D2E/DX2                !
 ! D35   D(3,1,12,11)         -113.4043         estimate D2E/DX2                !
 ! D36   D(3,1,12,14)           88.8837         estimate D2E/DX2                !
 ! D37   D(3,1,12,15)           -3.8674         estimate D2E/DX2                !
 ! D38   D(3,1,12,21)          115.6807         estimate D2E/DX2                !
 ! D39   D(3,1,12,27)          -66.5845         estimate D2E/DX2                !
 ! D40   D(4,1,12,11)           -1.6591         estimate D2E/DX2                !
 ! D41   D(4,1,12,14)         -159.3711         estimate D2E/DX2                !
 ! D42   D(4,1,12,15)          107.8778         estimate D2E/DX2                !
 ! D43   D(4,1,12,21)         -132.5741         estimate D2E/DX2                !
 ! D44   D(4,1,12,27)           45.1608         estimate D2E/DX2                !
 ! D45   D(23,1,12,11)         159.228          estimate D2E/DX2                !
 ! D46   D(23,1,12,14)           1.516          estimate D2E/DX2                !
 ! D47   D(23,1,12,15)         -91.2351         estimate D2E/DX2                !
 ! D48   D(23,1,12,21)          28.313          estimate D2E/DX2                !
 ! D49   D(23,1,12,27)        -153.9522         estimate D2E/DX2                !
 ! D50   D(2,1,23,21)          -87.5044         estimate D2E/DX2                !
 ! D51   D(3,1,23,21)          170.9256         estimate D2E/DX2                !
 ! D52   D(4,1,23,21)           94.2851         estimate D2E/DX2                !
 ! D53   D(5,1,23,21)           19.7979         estimate D2E/DX2                !
 ! D54   D(9,1,23,21)          -76.8199         estimate D2E/DX2                !
 ! D55   D(12,1,23,21)         -36.3648         estimate D2E/DX2                !
 ! D56   D(1,2,9,12)           -82.8453         estimate D2E/DX2                !
 ! D57   D(1,3,6,4)             30.2785         estimate D2E/DX2                !
 ! D58   D(1,3,6,7)             88.584          estimate D2E/DX2                !
 ! D59   D(1,3,6,8)            -75.4548         estimate D2E/DX2                !
 ! D60   D(1,3,6,9)            -21.0717         estimate D2E/DX2                !
 ! D61   D(1,3,6,13)           -78.6539         estimate D2E/DX2                !
 ! D62   D(1,3,6,18)          -179.87           estimate D2E/DX2                !
 ! D63   D(1,3,6,20)          -177.7245         estimate D2E/DX2                !
 ! D64   D(1,4,6,3)            -29.9299         estimate D2E/DX2                !
 ! D65   D(1,4,6,7)            174.4405         estimate D2E/DX2                !
 ! D66   D(1,4,6,8)             73.4279         estimate D2E/DX2                !
 ! D67   D(1,4,6,13)           128.819          estimate D2E/DX2                !
 ! D68   D(1,4,6,18)           179.3663         estimate D2E/DX2                !
 ! D69   D(1,4,6,20)           -99.9066         estimate D2E/DX2                !
 ! D70   D(1,5,21,14)          -92.8109         estimate D2E/DX2                !
 ! D71   D(1,5,21,22)          143.8233         estimate D2E/DX2                !
 ! D72   D(1,5,21,23)           22.9875         estimate D2E/DX2                !
 ! D73   D(3,6,9,1)             19.9386         estimate D2E/DX2                !
 ! D74   D(3,6,9,2)            -28.3803         estimate D2E/DX2                !
 ! D75   D(3,6,9,10)           170.6053         estimate D2E/DX2                !
 ! D76   D(3,6,9,11)            94.1146         estimate D2E/DX2                !
 ! D77   D(3,6,9,12)            14.5475         estimate D2E/DX2                !
 ! D78   D(3,6,9,26)          -111.2813         estimate D2E/DX2                !
 ! D79   D(7,6,9,1)           -133.2628         estimate D2E/DX2                !
 ! D80   D(7,6,9,2)            178.4182         estimate D2E/DX2                !
 ! D81   D(7,6,9,10)            17.4038         estimate D2E/DX2                !
 ! D82   D(7,6,9,11)           -59.0868         estimate D2E/DX2                !
 ! D83   D(7,6,9,12)          -138.654          estimate D2E/DX2                !
 ! D84   D(7,6,9,26)            95.5172         estimate D2E/DX2                !
 ! D85   D(13,6,9,1)          -179.277          estimate D2E/DX2                !
 ! D86   D(13,6,9,2)           132.404          estimate D2E/DX2                !
 ! D87   D(13,6,9,10)          -28.6103         estimate D2E/DX2                !
 ! D88   D(13,6,9,11)         -105.101          estimate D2E/DX2                !
 ! D89   D(13,6,9,12)          175.3319         estimate D2E/DX2                !
 ! D90   D(13,6,9,26)           49.5031         estimate D2E/DX2                !
 ! D91   D(18,6,9,1)          -179.7534         estimate D2E/DX2                !
 ! D92   D(18,6,9,2)           131.9277         estimate D2E/DX2                !
 ! D93   D(18,6,9,10)          -29.0867         estimate D2E/DX2                !
 ! D94   D(18,6,9,11)         -105.5773         estimate D2E/DX2                !
 ! D95   D(18,6,9,12)          174.8555         estimate D2E/DX2                !
 ! D96   D(18,6,9,26)           49.0267         estimate D2E/DX2                !
 ! D97   D(20,6,9,1)           101.9286         estimate D2E/DX2                !
 ! D98   D(20,6,9,2)            53.6096         estimate D2E/DX2                !
 ! D99   D(20,6,9,10)         -107.4048         estimate D2E/DX2                !
 ! D100  D(20,6,9,11)          176.1046         estimate D2E/DX2                !
 ! D101  D(20,6,9,12)           96.5374         estimate D2E/DX2                !
 ! D102  D(20,6,9,26)          -29.2914         estimate D2E/DX2                !
 ! D103  D(3,6,13,10)           89.2409         estimate D2E/DX2                !
 ! D104  D(3,6,13,16)          -74.4226         estimate D2E/DX2                !
 ! D105  D(3,6,13,17)           12.5988         estimate D2E/DX2                !
 ! D106  D(3,6,13,37)          165.1547         estimate D2E/DX2                !
 ! D107  D(3,6,13,39)         -115.4745         estimate D2E/DX2                !
 ! D108  D(4,6,13,10)          -16.9863         estimate D2E/DX2                !
 ! D109  D(4,6,13,16)          179.3502         estimate D2E/DX2                !
 ! D110  D(4,6,13,17)          -93.6284         estimate D2E/DX2                !
 ! D111  D(4,6,13,37)           58.9275         estimate D2E/DX2                !
 ! D112  D(4,6,13,39)          138.2983         estimate D2E/DX2                !
 ! D113  D(9,6,13,10)           28.528          estimate D2E/DX2                !
 ! D114  D(9,6,13,16)         -135.1354         estimate D2E/DX2                !
 ! D115  D(9,6,13,17)          -48.1141         estimate D2E/DX2                !
 ! D116  D(9,6,13,37)          104.4419         estimate D2E/DX2                !
 ! D117  D(9,6,13,39)         -176.1874         estimate D2E/DX2                !
 ! D118  D(20,6,13,10)        -174.7612         estimate D2E/DX2                !
 ! D119  D(20,6,13,16)          21.5754         estimate D2E/DX2                !
 ! D120  D(20,6,13,17)         108.5967         estimate D2E/DX2                !
 ! D121  D(20,6,13,37)         -98.8474         estimate D2E/DX2                !
 ! D122  D(20,6,13,39)         -19.4766         estimate D2E/DX2                !
 ! D123  D(3,6,18,16)          106.2166         estimate D2E/DX2                !
 ! D124  D(3,6,18,19)           19.4554         estimate D2E/DX2                !
 ! D125  D(3,6,18,43)         -108.9495         estimate D2E/DX2                !
 ! D126  D(4,6,18,16)         -116.2489         estimate D2E/DX2                !
 ! D127  D(4,6,18,19)          156.9899         estimate D2E/DX2                !
 ! D128  D(4,6,18,43)           28.585          estimate D2E/DX2                !
 ! D129  D(8,6,18,16)           -3.6914         estimate D2E/DX2                !
 ! D130  D(8,6,18,19)          -90.4526         estimate D2E/DX2                !
 ! D131  D(8,6,18,43)          141.1425         estimate D2E/DX2                !
 ! D132  D(9,6,18,16)          -46.0671         estimate D2E/DX2                !
 ! D133  D(9,6,18,19)         -132.8283         estimate D2E/DX2                !
 ! D134  D(9,6,18,43)           98.7668         estimate D2E/DX2                !
 ! D135  D(6,7,13,18)          -76.5998         estimate D2E/DX2                !
 ! D136  D(13,8,9,1)          -129.0394         estimate D2E/DX2                !
 ! D137  D(13,8,9,2)           177.3618         estimate D2E/DX2                !
 ! D138  D(13,8,9,4)           -73.8905         estimate D2E/DX2                !
 ! D139  D(13,8,9,10)           10.9451         estimate D2E/DX2                !
 ! D140  D(13,8,9,12)          171.8688         estimate D2E/DX2                !
 ! D141  D(13,8,9,26)           94.9271         estimate D2E/DX2                !
 ! D142  D(13,8,9,27)           93.1824         estimate D2E/DX2                !
 ! D143  D(9,8,13,7)            69.449          estimate D2E/DX2                !
 ! D144  D(9,8,13,10)          -10.9055         estimate D2E/DX2                !
 ! D145  D(9,8,13,16)          179.1696         estimate D2E/DX2                !
 ! D146  D(9,8,13,17)          -94.1561         estimate D2E/DX2                !
 ! D147  D(9,8,13,18)          124.3701         estimate D2E/DX2                !
 ! D148  D(9,8,13,36)          -89.4015         estimate D2E/DX2                !
 ! D149  D(9,8,13,39)         -170.2377         estimate D2E/DX2                !
 ! D150  D(1,9,10,13)           79.9937         estimate D2E/DX2                !
 ! D151  D(1,9,10,24)          179.0324         estimate D2E/DX2                !
 ! D152  D(2,9,10,13)          -57.1766         estimate D2E/DX2                !
 ! D153  D(2,9,10,24)           41.862          estimate D2E/DX2                !
 ! D154  D(4,9,10,13)           86.0613         estimate D2E/DX2                !
 ! D155  D(4,9,10,24)         -174.9001         estimate D2E/DX2                !
 ! D156  D(6,9,10,13)           35.1005         estimate D2E/DX2                !
 ! D157  D(6,9,10,24)          134.1391         estimate D2E/DX2                !
 ! D158  D(8,9,10,13)          -11.1225         estimate D2E/DX2                !
 ! D159  D(8,9,10,24)           87.9161         estimate D2E/DX2                !
 ! D160  D(11,9,10,13)         173.7695         estimate D2E/DX2                !
 ! D161  D(11,9,10,24)         -87.1918         estimate D2E/DX2                !
 ! D162  D(12,9,10,13)        -171.6008         estimate D2E/DX2                !
 ! D163  D(12,9,10,24)         -72.5622         estimate D2E/DX2                !
 ! D164  D(26,9,10,13)         -88.6201         estimate D2E/DX2                !
 ! D165  D(26,9,10,24)          10.4186         estimate D2E/DX2                !
 ! D166  D(27,9,10,13)        -135.0979         estimate D2E/DX2                !
 ! D167  D(27,9,10,24)         -36.0593         estimate D2E/DX2                !
 ! D168  D(4,9,12,5)             1.8446         estimate D2E/DX2                !
 ! D169  D(4,9,12,14)          -88.6216         estimate D2E/DX2                !
 ! D170  D(4,9,12,15)          164.6076         estimate D2E/DX2                !
 ! D171  D(4,9,12,21)          -37.7388         estimate D2E/DX2                !
 ! D172  D(6,9,12,5)            48.8999         estimate D2E/DX2                !
 ! D173  D(6,9,12,14)          -41.5663         estimate D2E/DX2                !
 ! D174  D(6,9,12,15)         -148.3371         estimate D2E/DX2                !
 ! D175  D(6,9,12,21)            9.3165         estimate D2E/DX2                !
 ! D176  D(8,9,12,5)           114.2744         estimate D2E/DX2                !
 ! D177  D(8,9,12,14)           23.8081         estimate D2E/DX2                !
 ! D178  D(8,9,12,15)          -82.9627         estimate D2E/DX2                !
 ! D179  D(8,9,12,21)           74.691          estimate D2E/DX2                !
 ! D180  D(10,9,12,5)          -94.382          estimate D2E/DX2                !
 ! D181  D(10,9,12,14)         175.1517         estimate D2E/DX2                !
 ! D182  D(10,9,12,15)          68.381          estimate D2E/DX2                !
 ! D183  D(10,9,12,21)        -133.9654         estimate D2E/DX2                !
 ! D184  D(26,9,12,5)         -174.2127         estimate D2E/DX2                !
 ! D185  D(26,9,12,14)          95.3211         estimate D2E/DX2                !
 ! D186  D(26,9,12,15)         -11.4497         estimate D2E/DX2                !
 ! D187  D(26,9,12,21)         146.2039         estimate D2E/DX2                !
 ! D188  D(1,9,26,24)         -179.3666         estimate D2E/DX2                !
 ! D189  D(2,9,26,24)          179.9915         estimate D2E/DX2                !
 ! D190  D(6,9,26,24)          -89.4425         estimate D2E/DX2                !
 ! D191  D(8,9,26,24)          -94.4089         estimate D2E/DX2                !
 ! D192  D(10,9,26,24)          -9.8632         estimate D2E/DX2                !
 ! D193  D(11,9,26,24)          73.5823         estimate D2E/DX2                !
 ! D194  D(12,9,26,24)         127.9559         estimate D2E/DX2                !
 ! D195  D(1,9,27,15)          -22.56           estimate D2E/DX2                !
 ! D196  D(1,9,27,28)          139.3388         estimate D2E/DX2                !
 ! D197  D(1,9,27,29)         -120.3173         estimate D2E/DX2                !
 ! D198  D(2,9,27,15)           22.225          estimate D2E/DX2                !
 ! D199  D(2,9,27,28)         -175.8762         estimate D2E/DX2                !
 ! D200  D(2,9,27,29)          -75.5323         estimate D2E/DX2                !
 ! D201  D(4,9,27,15)          -95.6953         estimate D2E/DX2                !
 ! D202  D(4,9,27,28)           66.2035         estimate D2E/DX2                !
 ! D203  D(4,9,27,29)          166.5473         estimate D2E/DX2                !
 ! D204  D(8,9,27,15)          103.8189         estimate D2E/DX2                !
 ! D205  D(8,9,27,28)          -94.2823         estimate D2E/DX2                !
 ! D206  D(8,9,27,29)            6.0615         estimate D2E/DX2                !
 ! D207  D(10,9,27,15)        -176.2675         estimate D2E/DX2                !
 ! D208  D(10,9,27,28)         -14.3687         estimate D2E/DX2                !
 ! D209  D(10,9,27,29)          85.9752         estimate D2E/DX2                !
 ! D210  D(9,10,13,6)          -34.6894         estimate D2E/DX2                !
 ! D211  D(9,10,13,7)          -84.0238         estimate D2E/DX2                !
 ! D212  D(9,10,13,8)           11.1182         estimate D2E/DX2                !
 ! D213  D(9,10,13,16)          49.184          estimate D2E/DX2                !
 ! D214  D(9,10,13,17)          89.3029         estimate D2E/DX2                !
 ! D215  D(9,10,13,18)         -69.012          estimate D2E/DX2                !
 ! D216  D(9,10,13,36)         136.944          estimate D2E/DX2                !
 ! D217  D(9,10,13,37)        -171.0879         estimate D2E/DX2                !
 ! D218  D(9,10,13,39)         171.0364         estimate D2E/DX2                !
 ! D219  D(24,10,13,6)        -135.4786         estimate D2E/DX2                !
 ! D220  D(24,10,13,7)         175.187          estimate D2E/DX2                !
 ! D221  D(24,10,13,8)         -89.671          estimate D2E/DX2                !
 ! D222  D(24,10,13,16)        -51.6052         estimate D2E/DX2                !
 ! D223  D(24,10,13,17)        -11.4863         estimate D2E/DX2                !
 ! D224  D(24,10,13,18)       -169.8012         estimate D2E/DX2                !
 ! D225  D(24,10,13,36)         36.1548         estimate D2E/DX2                !
 ! D226  D(24,10,13,37)         88.1229         estimate D2E/DX2                !
 ! D227  D(24,10,13,39)         70.2472         estimate D2E/DX2                !
 ! D228  D(9,10,24,17)         -86.939          estimate D2E/DX2                !
 ! D229  D(9,10,24,25)         175.439          estimate D2E/DX2                !
 ! D230  D(9,10,24,26)         -10.2033         estimate D2E/DX2                !
 ! D231  D(9,10,24,28)          82.2017         estimate D2E/DX2                !
 ! D232  D(9,10,24,30)          66.7897         estimate D2E/DX2                !
 ! D233  D(9,10,24,33)        -169.3353         estimate D2E/DX2                !
 ! D234  D(13,10,24,17)         11.4866         estimate D2E/DX2                !
 ! D235  D(13,10,24,25)        -86.1355         estimate D2E/DX2                !
 ! D236  D(13,10,24,26)         88.2223         estimate D2E/DX2                !
 ! D237  D(13,10,24,28)       -179.3727         estimate D2E/DX2                !
 ! D238  D(13,10,24,30)        165.2153         estimate D2E/DX2                !
 ! D239  D(13,10,24,33)        -70.9097         estimate D2E/DX2                !
 ! D240  D(9,11,12,27)         -81.2143         estimate D2E/DX2                !
 ! D241  D(1,12,21,22)         143.2999         estimate D2E/DX2                !
 ! D242  D(1,12,21,23)         -34.4203         estimate D2E/DX2                !
 ! D243  D(2,12,21,22)        -169.945          estimate D2E/DX2                !
 ! D244  D(2,12,21,23)          12.3348         estimate D2E/DX2                !
 ! D245  D(9,12,21,22)         139.7658         estimate D2E/DX2                !
 ! D246  D(9,12,21,23)         -37.9544         estimate D2E/DX2                !
 ! D247  D(11,12,21,22)         74.0851         estimate D2E/DX2                !
 ! D248  D(11,12,21,23)       -103.6351         estimate D2E/DX2                !
 ! D249  D(15,12,21,22)        -66.9893         estimate D2E/DX2                !
 ! D250  D(15,12,21,23)        115.2905         estimate D2E/DX2                !
 ! D251  D(1,12,27,26)          42.1006         estimate D2E/DX2                !
 ! D252  D(1,12,27,28)         -70.0042         estimate D2E/DX2                !
 ! D253  D(1,12,27,29)         148.0564         estimate D2E/DX2                !
 ! D254  D(2,12,27,26)          -5.7264         estimate D2E/DX2                !
 ! D255  D(2,12,27,28)        -117.8312         estimate D2E/DX2                !
 ! D256  D(2,12,27,29)         100.2294         estimate D2E/DX2                !
 ! D257  D(5,12,27,26)         107.1967         estimate D2E/DX2                !
 ! D258  D(5,12,27,28)          -4.9081         estimate D2E/DX2                !
 ! D259  D(5,12,27,29)        -146.8474         estimate D2E/DX2                !
 ! D260  D(14,12,27,26)       -103.5557         estimate D2E/DX2                !
 ! D261  D(14,12,27,28)        144.3396         estimate D2E/DX2                !
 ! D262  D(14,12,27,29)          2.4002         estimate D2E/DX2                !
 ! D263  D(6,13,17,24)          89.3492         estimate D2E/DX2                !
 ! D264  D(7,13,17,24)          32.6783         estimate D2E/DX2                !
 ! D265  D(8,13,17,24)          95.7444         estimate D2E/DX2                !
 ! D266  D(10,13,17,24)         11.3737         estimate D2E/DX2                !
 ! D267  D(16,13,17,24)       -179.1402         estimate D2E/DX2                !
 ! D268  D(18,13,17,24)        167.6258         estimate D2E/DX2                !
 ! D269  D(37,13,17,24)        -71.3991         estimate D2E/DX2                !
 ! D270  D(39,13,17,24)       -125.2237         estimate D2E/DX2                !
 ! D271  D(8,13,18,19)         100.1253         estimate D2E/DX2                !
 ! D272  D(8,13,18,20)         -10.6854         estimate D2E/DX2                !
 ! D273  D(8,13,18,42)         150.1423         estimate D2E/DX2                !
 ! D274  D(8,13,18,43)        -158.3615         estimate D2E/DX2                !
 ! D275  D(10,13,18,19)        178.0667         estimate D2E/DX2                !
 ! D276  D(10,13,18,20)         67.256          estimate D2E/DX2                !
 ! D277  D(10,13,18,42)       -131.9163         estimate D2E/DX2                !
 ! D278  D(10,13,18,43)        -80.4201         estimate D2E/DX2                !
 ! D279  D(17,13,18,19)         32.0166         estimate D2E/DX2                !
 ! D280  D(17,13,18,20)        -78.7941         estimate D2E/DX2                !
 ! D281  D(17,13,18,42)         82.0337         estimate D2E/DX2                !
 ! D282  D(17,13,18,43)        133.5298         estimate D2E/DX2                !
 ! D283  D(36,13,18,19)        -39.7543         estimate D2E/DX2                !
 ! D284  D(36,13,18,20)       -150.565          estimate D2E/DX2                !
 ! D285  D(36,13,18,42)         10.2627         estimate D2E/DX2                !
 ! D286  D(36,13,18,43)         61.7589         estimate D2E/DX2                !
 ! D287  D(37,13,18,19)        -87.6438         estimate D2E/DX2                !
 ! D288  D(37,13,18,20)        161.5455         estimate D2E/DX2                !
 ! D289  D(37,13,18,42)        -37.6267         estimate D2E/DX2                !
 ! D290  D(37,13,18,43)         13.8694         estimate D2E/DX2                !
 ! D291  D(39,13,18,19)        -40.4267         estimate D2E/DX2                !
 ! D292  D(39,13,18,20)       -151.2374         estimate D2E/DX2                !
 ! D293  D(39,13,18,42)          9.5903         estimate D2E/DX2                !
 ! D294  D(39,13,18,43)         61.0865         estimate D2E/DX2                !
 ! D295  D(7,13,36,25)         -56.0452         estimate D2E/DX2                !
 ! D296  D(7,13,36,33)        -100.827          estimate D2E/DX2                !
 ! D297  D(7,13,36,35)        -169.5014         estimate D2E/DX2                !
 ! D298  D(7,13,36,38)         108.4578         estimate D2E/DX2                !
 ! D299  D(8,13,36,25)          92.2779         estimate D2E/DX2                !
 ! D300  D(8,13,36,33)          47.496          estimate D2E/DX2                !
 ! D301  D(8,13,36,35)         -21.1784         estimate D2E/DX2                !
 ! D302  D(8,13,36,38)        -103.2192         estimate D2E/DX2                !
 ! D303  D(10,13,36,25)         14.7862         estimate D2E/DX2                !
 ! D304  D(10,13,36,33)        -29.9956         estimate D2E/DX2                !
 ! D305  D(10,13,36,35)        -98.67           estimate D2E/DX2                !
 ! D306  D(10,13,36,38)        179.2892         estimate D2E/DX2                !
 ! D307  D(16,13,36,25)        178.3506         estimate D2E/DX2                !
 ! D308  D(16,13,36,33)        133.5687         estimate D2E/DX2                !
 ! D309  D(16,13,36,35)         64.8943         estimate D2E/DX2                !
 ! D310  D(16,13,36,38)        -17.1465         estimate D2E/DX2                !
 ! D311  D(18,13,36,25)       -139.1355         estimate D2E/DX2                !
 ! D312  D(18,13,36,33)        176.0827         estimate D2E/DX2                !
 ! D313  D(18,13,36,35)        107.4083         estimate D2E/DX2                !
 ! D314  D(18,13,36,38)         25.3675         estimate D2E/DX2                !
 ! D315  D(6,13,39,38)         146.0628         estimate D2E/DX2                !
 ! D316  D(6,13,39,40)         -60.3232         estimate D2E/DX2                !
 ! D317  D(6,13,39,41)          19.4399         estimate D2E/DX2                !
 ! D318  D(7,13,39,38)        -165.1902         estimate D2E/DX2                !
 ! D319  D(7,13,39,40)         -11.5762         estimate D2E/DX2                !
 ! D320  D(7,13,39,41)          68.1869         estimate D2E/DX2                !
 ! D321  D(8,13,39,38)          78.9603         estimate D2E/DX2                !
 ! D322  D(8,13,39,40)        -127.4257         estimate D2E/DX2                !
 ! D323  D(8,13,39,41)         -47.6626         estimate D2E/DX2                !
 ! D324  D(10,13,39,38)        -70.7548         estimate D2E/DX2                !
 ! D325  D(10,13,39,40)         82.8592         estimate D2E/DX2                !
 ! D326  D(10,13,39,41)        162.6223         estimate D2E/DX2                !
 ! D327  D(17,13,39,38)          7.6776         estimate D2E/DX2                !
 ! D328  D(17,13,39,40)        161.2916         estimate D2E/DX2                !
 ! D329  D(17,13,39,41)       -118.9453         estimate D2E/DX2                !
 ! D330  D(18,13,39,38)        149.0325         estimate D2E/DX2                !
 ! D331  D(18,13,39,40)        -57.3536         estimate D2E/DX2                !
 ! D332  D(18,13,39,41)         22.4095         estimate D2E/DX2                !
 ! D333  D(39,16,18,6)         121.5091         estimate D2E/DX2                !
 ! D334  D(39,16,18,7)          67.8531         estimate D2E/DX2                !
 ! D335  D(39,16,18,19)       -100.5361         estimate D2E/DX2                !
 ! D336  D(39,16,18,20)        176.717          estimate D2E/DX2                !
 ! D337  D(39,16,18,42)        -57.2783         estimate D2E/DX2                !
 ! D338  D(39,16,18,43)        -24.5577         estimate D2E/DX2                !
 ! D339  D(18,16,39,36)       -117.6493         estimate D2E/DX2                !
 ! D340  D(18,16,39,37)        -63.0749         estimate D2E/DX2                !
 ! D341  D(18,16,39,38)       -174.2652         estimate D2E/DX2                !
 ! D342  D(18,16,39,40)         57.5822         estimate D2E/DX2                !
 ! D343  D(18,16,39,41)         93.121          estimate D2E/DX2                !
 ! D344  D(13,17,24,10)        -11.3358         estimate D2E/DX2                !
 ! D345  D(13,17,24,25)         71.3273         estimate D2E/DX2                !
 ! D346  D(13,17,24,26)        -94.0271         estimate D2E/DX2                !
 ! D347  D(13,17,24,28)        -48.2267         estimate D2E/DX2                !
 ! D348  D(13,17,24,30)       -162.8624         estimate D2E/DX2                !
 ! D349  D(13,17,24,32)        177.545          estimate D2E/DX2                !
 ! D350  D(13,17,24,33)        124.0476         estimate D2E/DX2                !
 ! D351  D(36,17,24,10)        -86.0673         estimate D2E/DX2                !
 ! D352  D(36,17,24,25)         -3.4042         estimate D2E/DX2                !
 ! D353  D(36,17,24,26)       -168.7586         estimate D2E/DX2                !
 ! D354  D(36,17,24,28)       -122.9582         estimate D2E/DX2                !
 ! D355  D(36,17,24,30)        122.4061         estimate D2E/DX2                !
 ! D356  D(36,17,24,32)        102.8135         estimate D2E/DX2                !
 ! D357  D(36,17,24,33)         49.316          estimate D2E/DX2                !
 ! D358  D(24,17,36,25)          3.4221         estimate D2E/DX2                !
 ! D359  D(24,17,36,33)        -42.9952         estimate D2E/DX2                !
 ! D360  D(24,17,36,35)        -86.9327         estimate D2E/DX2                !
 ! D361  D(24,17,36,37)         91.1021         estimate D2E/DX2                !
 ! D362  D(24,17,36,38)       -166.9802         estimate D2E/DX2                !
 ! D363  D(24,17,36,39)        143.5991         estimate D2E/DX2                !
 ! D364  D(7,18,42,40)         -49.1595         estimate D2E/DX2                !
 ! D365  D(7,18,42,41)         -97.9459         estimate D2E/DX2                !
 ! D366  D(7,18,42,44)          91.1546         estimate D2E/DX2                !
 ! D367  D(13,18,42,40)         16.0734         estimate D2E/DX2                !
 ! D368  D(13,18,42,41)        -32.713          estimate D2E/DX2                !
 ! D369  D(13,18,42,44)        156.3875         estimate D2E/DX2                !
 ! D370  D(16,18,42,40)         65.8497         estimate D2E/DX2                !
 ! D371  D(16,18,42,41)         17.0634         estimate D2E/DX2                !
 ! D372  D(16,18,42,44)       -153.8362         estimate D2E/DX2                !
 ! D373  D(20,18,42,40)        174.6063         estimate D2E/DX2                !
 ! D374  D(20,18,42,41)        125.82           estimate D2E/DX2                !
 ! D375  D(20,18,42,44)        -45.0796         estimate D2E/DX2                !
 ! D376  D(5,21,23,1)          -21.9362         estimate D2E/DX2                !
 ! D377  D(12,21,23,1)          34.8851         estimate D2E/DX2                !
 ! D378  D(14,21,23,1)          90.6066         estimate D2E/DX2                !
 ! D379  D(22,21,23,1)        -143.7907         estimate D2E/DX2                !
 ! D380  D(10,24,25,36)         83.9239         estimate D2E/DX2                !
 ! D381  D(17,24,25,36)          3.099          estimate D2E/DX2                !
 ! D382  D(26,24,25,36)         63.7231         estimate D2E/DX2                !
 ! D383  D(28,24,25,36)        167.337          estimate D2E/DX2                !
 ! D384  D(30,24,25,36)       -142.0536         estimate D2E/DX2                !
 ! D385  D(32,24,25,36)        -86.5136         estimate D2E/DX2                !
 ! D386  D(10,24,26,9)           9.8259         estimate D2E/DX2                !
 ! D387  D(10,24,26,27)         85.5101         estimate D2E/DX2                !
 ! D388  D(17,24,26,9)          93.4662         estimate D2E/DX2                !
 ! D389  D(17,24,26,27)        169.1505         estimate D2E/DX2                !
 ! D390  D(25,24,26,9)          30.1672         estimate D2E/DX2                !
 ! D391  D(25,24,26,27)        105.8514         estimate D2E/DX2                !
 ! D392  D(28,24,26,9)         -73.6062         estimate D2E/DX2                !
 ! D393  D(28,24,26,27)          2.0781         estimate D2E/DX2                !
 ! D394  D(30,24,26,9)        -125.3326         estimate D2E/DX2                !
 ! D395  D(30,24,26,27)        -49.6483         estimate D2E/DX2                !
 ! D396  D(32,24,26,9)        -178.2982         estimate D2E/DX2                !
 ! D397  D(32,24,26,27)       -102.614          estimate D2E/DX2                !
 ! D398  D(33,24,26,9)         166.7469         estimate D2E/DX2                !
 ! D399  D(33,24,26,27)       -117.5688         estimate D2E/DX2                !
 ! D400  D(10,24,28,27)        -82.5518         estimate D2E/DX2                !
 ! D401  D(17,24,28,27)        -45.8592         estimate D2E/DX2                !
 ! D402  D(25,24,28,27)       -165.9779         estimate D2E/DX2                !
 ! D403  D(26,24,28,27)         -1.8405         estimate D2E/DX2                !
 ! D404  D(32,24,28,27)         86.3789         estimate D2E/DX2                !
 ! D405  D(33,24,28,27)        142.2418         estimate D2E/DX2                !
 ! D406  D(10,24,30,29)        -67.135          estimate D2E/DX2                !
 ! D407  D(10,24,30,31)        107.4767         estimate D2E/DX2                !
 ! D408  D(17,24,30,29)         72.1224         estimate D2E/DX2                !
 ! D409  D(17,24,30,31)       -113.2659         estimate D2E/DX2                !
 ! D410  D(25,24,30,29)       -165.6479         estimate D2E/DX2                !
 ! D411  D(25,24,30,31)          8.9639         estimate D2E/DX2                !
 ! D412  D(26,24,30,29)          7.32           estimate D2E/DX2                !
 ! D413  D(26,24,30,31)       -178.0683         estimate D2E/DX2                !
 ! D414  D(33,24,30,29)        149.7848         estimate D2E/DX2                !
 ! D415  D(33,24,30,31)        -35.6035         estimate D2E/DX2                !
 ! D416  D(10,24,33,34)       -104.9274         estimate D2E/DX2                !
 ! D417  D(10,24,33,35)         68.0847         estimate D2E/DX2                !
 ! D418  D(10,24,33,36)         41.4364         estimate D2E/DX2                !
 ! D419  D(17,24,33,34)        176.324          estimate D2E/DX2                !
 ! D420  D(17,24,33,35)        -10.6638         estimate D2E/DX2                !
 ! D421  D(17,24,33,36)        -37.3121         estimate D2E/DX2                !
 ! D422  D(26,24,33,34)        108.1864         estimate D2E/DX2                !
 ! D423  D(26,24,33,35)        -78.8015         estimate D2E/DX2                !
 ! D424  D(26,24,33,36)       -105.4497         estimate D2E/DX2                !
 ! D425  D(28,24,33,34)         -6.1957         estimate D2E/DX2                !
 ! D426  D(28,24,33,35)        166.8164         estimate D2E/DX2                !
 ! D427  D(28,24,33,36)        140.1681         estimate D2E/DX2                !
 ! D428  D(30,24,33,34)         37.2853         estimate D2E/DX2                !
 ! D429  D(30,24,33,35)       -149.7026         estimate D2E/DX2                !
 ! D430  D(30,24,33,36)       -176.3508         estimate D2E/DX2                !
 ! D431  D(24,25,36,13)        -61.738          estimate D2E/DX2                !
 ! D432  D(24,25,36,17)         -3.5963         estimate D2E/DX2                !
 ! D433  D(24,25,36,35)         96.587          estimate D2E/DX2                !
 ! D434  D(24,25,36,37)       -111.4229         estimate D2E/DX2                !
 ! D435  D(24,25,36,38)        154.74           estimate D2E/DX2                !
 ! D436  D(24,25,36,39)       -115.3727         estimate D2E/DX2                !
 ! D437  D(24,26,27,11)        -85.7615         estimate D2E/DX2                !
 ! D438  D(24,26,27,12)       -139.8777         estimate D2E/DX2                !
 ! D439  D(24,26,27,15)        167.3444         estimate D2E/DX2                !
 ! D440  D(24,26,27,28)         -2.0657         estimate D2E/DX2                !
 ! D441  D(24,26,27,29)         85.1822         estimate D2E/DX2                !
 ! D442  D(9,27,28,24)          60.3997         estimate D2E/DX2                !
 ! D443  D(9,27,28,30)         133.0975         estimate D2E/DX2                !
 ! D444  D(11,27,28,24)        109.6857         estimate D2E/DX2                !
 ! D445  D(11,27,28,30)       -177.6164         estimate D2E/DX2                !
 ! D446  D(12,27,28,24)        112.8288         estimate D2E/DX2                !
 ! D447  D(12,27,28,30)       -174.4733         estimate D2E/DX2                !
 ! D448  D(15,27,28,24)       -157.0235         estimate D2E/DX2                !
 ! D449  D(15,27,28,30)        -84.3257         estimate D2E/DX2                !
 ! D450  D(26,27,28,24)          2.2236         estimate D2E/DX2                !
 ! D451  D(26,27,28,30)         74.9215         estimate D2E/DX2                !
 ! D452  D(29,27,28,24)        -94.0237         estimate D2E/DX2                !
 ! D453  D(29,27,28,30)        -21.3258         estimate D2E/DX2                !
 ! D454  D(9,27,29,30)         -80.8271         estimate D2E/DX2                !
 ! D455  D(11,27,29,30)         83.2043         estimate D2E/DX2                !
 ! D456  D(12,27,29,30)        176.4122         estimate D2E/DX2                !
 ! D457  D(15,27,29,30)        175.9476         estimate D2E/DX2                !
 ! D458  D(26,27,29,30)        -77.6768         estimate D2E/DX2                !
 ! D459  D(28,27,29,30)         22.5347         estimate D2E/DX2                !
 ! D460  D(27,28,30,29)         25.4088         estimate D2E/DX2                !
 ! D461  D(27,28,30,31)        146.5939         estimate D2E/DX2                !
 ! D462  D(27,28,30,32)        -88.6387         estimate D2E/DX2                !
 ! D463  D(27,29,30,24)         32.5432         estimate D2E/DX2                !
 ! D464  D(27,29,30,28)        -24.7815         estimate D2E/DX2                !
 ! D465  D(27,29,30,31)       -143.0913         estimate D2E/DX2                !
 ! D466  D(27,29,30,32)         92.3298         estimate D2E/DX2                !
 ! D467  D(24,30,31,45)         -6.4263         estimate D2E/DX2                !
 ! D468  D(28,30,31,45)         56.1255         estimate D2E/DX2                !
 ! D469  D(29,30,31,45)        168.1023         estimate D2E/DX2                !
 ! D470  D(32,30,31,45)        -69.0694         estimate D2E/DX2                !
 ! D471  D(28,30,32,33)        -62.9674         estimate D2E/DX2                !
 ! D472  D(29,30,32,33)       -171.9068         estimate D2E/DX2                !
 ! D473  D(31,30,32,33)         61.5034         estimate D2E/DX2                !
 ! D474  D(30,31,45,34)         52.2203         estimate D2E/DX2                !
 ! D475  D(30,32,33,25)         63.1779         estimate D2E/DX2                !
 ! D476  D(30,32,33,34)        -59.4116         estimate D2E/DX2                !
 ! D477  D(30,32,33,35)        172.3189         estimate D2E/DX2                !
 ! D478  D(30,32,33,36)        116.5719         estimate D2E/DX2                !
 ! D479  D(24,33,34,45)          2.6289         estimate D2E/DX2                !
 ! D480  D(25,33,34,45)        -58.623          estimate D2E/DX2                !
 ! D481  D(32,33,34,45)         66.1427         estimate D2E/DX2                !
 ! D482  D(35,33,34,45)       -170.1533         estimate D2E/DX2                !
 ! D483  D(36,33,34,45)       -106.3422         estimate D2E/DX2                !
 ! D484  D(24,33,36,13)          1.1178         estimate D2E/DX2                !
 ! D485  D(24,33,36,17)         43.4435         estimate D2E/DX2                !
 ! D486  D(24,33,36,37)        -71.1426         estimate D2E/DX2                !
 ! D487  D(24,33,36,38)        145.7174         estimate D2E/DX2                !
 ! D488  D(32,33,36,13)        -43.5132         estimate D2E/DX2                !
 ! D489  D(32,33,36,17)         -1.1875         estimate D2E/DX2                !
 ! D490  D(32,33,36,37)       -115.7736         estimate D2E/DX2                !
 ! D491  D(32,33,36,38)        101.0864         estimate D2E/DX2                !
 ! D492  D(34,33,36,13)        129.3616         estimate D2E/DX2                !
 ! D493  D(34,33,36,17)        171.6873         estimate D2E/DX2                !
[...]
 0.00013361,0.00023827,0.00008065,-0.00029364,0.00004751,0.00055525,-0.
 00018116,0.00078409,-0.00045642,0.00041928,-0.00086257,-0.00087467,0.0
 0058531,-0.00072142,0.00001963,-0.00052047,-0.00049732,0.00163218,0.00
 076704,-0.00020701,0.00046813,-0.00002448,0.00061395,-0.00004227,0.000
 48445,-0.00036427,-0.00157240,-0.00209865,0.00084534,-0.00132394,0.000
 05222,0.00114514,-0.00048120,-0.00060923,0.00022364,0.00175707,-0.0042
 6181,0.00200648,-0.01378304,-0.00411617,0.00922751,-0.01677758,-0.0137
 3036,0.00024408,0.36429540,0.00094984,-0.00026326,-0.00035542,0.000281
 80,0.00000140,0.00005923,-0.00045154,0.00021848,-0.00023490,-0.0004846
 3,-0.00008177,0.00043678,-0.00022902,-0.00003052,-0.00006175,-0.000143
 35,-0.00062916,-0.00247756,0.00224896,-0.00055648,-0.00079588,0.000465
 59,0.00078614,-0.00015903,-0.00118755,-0.00037161,0.00030364,0.0004120
 7,0.00008160,-0.00000609,-0.00008432,0.00001003,-0.00005830,0.00030471
 ,0.00040334,0.00068421,-0.00324008,-0.00841057,0.00161324,-0.00000614,
 0.00005780,-0.00004325,0.00001485,-0.00023581,0.00001000,-0.00428541,0
 .00002619,-0.00051750,-0.00022943,0.00074208,-0.00059625,0.00910404,0.
 01096773,0.02464426,0.00093707,-0.01080451,-0.01515079,-0.00036084,0.0
 0159788,-0.00194275,0.00018023,0.00012264,-0.00021398,-0.00000425,-0.0
 0002017,0.00000635,-0.00019038,0.00009561,0.00001283,0.00091288,-0.000
 43805,0.00045326,0.00030605,-0.00010245,0.00042598,0.00005188,0.000037
 99,-0.00016387,0.00012160,0.00044248,-0.00027052,0.00020009,-0.0001551
 7,0.00000539,0.00013020,-0.00034042,0.00038780,-0.00050651,0.00036947,
 -0.00053521,-0.00006531,0.00009808,-0.00038480,-0.00004594,-0.00012397
 ,-0.00009127,-0.00045426,-0.00007062,-0.00038520,-0.00011405,0.0001955
 0,0.00015556,-0.00013501,-0.00007746,0.00000421,-0.00024073,0.00153330
 ,0.00033761,0.00123101,-0.00089820,-0.00087512,-0.00023319,-0.00190850
 ,-0.00008542,-0.00758359,0.00918440,-0.00205735,-0.00506770,-0.0062681
 6,0.00277873,-0.00235700,-0.07109700,0.02896385,0.04993949,0.19416173,
 -0.00147859,0.00009703,0.00018709,-0.00065510,0.00004762,-0.00007473,-
 0.00017736,-0.00009799,0.00048557,0.00042285,-0.00002478,-0.00016998,0
 .00033501,0.00006475,0.00014062,0.00134771,0.00041538,-0.00007401,0.00
 167856,-0.00293037,-0.00170579,0.00014566,-0.00018517,-0.00014126,0.00
 295499,0.00166520,-0.00052342,-0.00012092,0.00007035,-0.00065503,0.000
 29171,-0.00009787,0.00025160,-0.00060460,-0.00094746,-0.00103148,-0.00
 178772,-0.00096427,0.00082661,0.00001739,-0.00006189,0.00007475,-0.000
 03576,0.00032380,0.00002986,-0.00215440,-0.00135488,-0.00369759,0.0000
 9605,0.00006068,0.00034373,-0.02066529,0.01916053,0.00285064,0.0015390
 8,-0.01659159,-0.18312645,-0.00152418,0.00093650,-0.00141552,-0.000367
 66,-0.00010042,0.00027624,0.00003833,-0.00004580,0.00001634,0.00028527
 ,-0.00011817,0.00000530,-0.00051877,0.00023174,-0.00006711,-0.00025461
 ,-0.00006286,-0.00022775,-0.00049595,-0.00001150,0.00029554,-0.0005552
 5,-0.00077335,-0.00022235,-0.00007498,0.00012135,-0.00010752,-0.000509
 82,0.00067777,-0.00111131,0.00107157,-0.00068273,0.00119856,0.00069715
 ,-0.00051275,0.00100434,-0.00008622,0.00051079,0.00043062,-0.00013810,
 -0.00029949,0.00047945,-0.00028828,-0.00005789,-0.00073409,-0.00002475
 ,-0.00045688,0.00018040,0.00096947,0.00089794,-0.00065228,-0.00001038,
 -0.00034687,-0.00031424,-0.00108971,0.00090972,-0.00035186,0.01176672,
 -0.00059469,0.00985966,-0.00314938,-0.00346508,-0.01347214,0.00528369,
 0.03025299,-0.01471110,0.04650962,0.00533748,0.26433947,-0.00041673,-0
 .00006975,0.00003425,-0.00022041,-0.00000060,0.00004285,-0.00019905,0.
 00011500,0.00007366,-0.00079210,0.00017776,-0.00021566,0.00001338,0.00
 003089,-0.00004144,0.00173672,-0.00016522,-0.00075641,-0.01360669,-0.0
 0281300,-0.00671891,0.00043948,0.00022733,-0.00016520,0.00143179,0.001
 02031,-0.00003128,0.00007209,0.00002205,-0.00061009,0.00018611,0.00003
 045,0.00014288,-0.00017927,-0.00029348,-0.00027095,-0.00688561,-0.0048
 5198,0.00246412,0.00000998,-0.00000841,-0.00000043,-0.00015877,0.00006
 359,0.00000044,-0.00033719,-0.00113020,0.00066063,0.00004111,0.0000097
 7,0.00016745,-0.01677540,-0.00848055,-0.00918474,0.00010998,0.00616864
 ,0.00831394,-0.00032075,0.00499969,-0.00548574,-0.00006093,-0.00012877
 ,0.00014904,-0.00005137,0.00010217,-0.00004139,0.00001296,-0.00003540,
 0.00000249,0.00076667,0.00009815,0.00050747,-0.00008198,-0.00026073,-0
 .00023605,-0.00043698,0.00003454,0.00016226,-0.00025154,-0.00028119,-0
 .00048759,0.00001528,0.00020603,-0.00012410,-0.00042609,0.00034035,-0.
 00073178,0.00042470,-0.00061750,0.00083470,0.00077736,-0.00041761,0.00
 069041,-0.00007089,0.00046882,0.00041248,-0.00120917,-0.00049108,0.000
 23549,-0.00039387,0.00009817,-0.00057269,0.00013997,-0.00048217,0.0001
 3835,0.00109386,0.00224821,-0.00125855,0.00032926,0.00059203,-0.001303
 06,0.00060267,-0.00012370,0.00000241,-0.00280548,0.00252810,-0.0010043
 7,0.00231923,0.00244335,-0.00450213,0.00599977,0.00826781,0.00083718,-
 0.04453060,0.03232664,0.00943004,0.07908879,0.00004791,-0.00044025,-0.
 00020854,-0.00002759,0.00009883,0.00005441,-0.00027529,0.00020717,-0.0
 0003827,-0.00024744,0.00004880,0.00036058,-0.00002454,0.00004883,-0.00
 002832,0.00093588,0.00134649,-0.00067055,0.00115328,0.00272266,0.00290
 502,-0.00009277,-0.00062789,-0.00012969,0.00035068,0.00046782,-0.00035
 304,0.00033701,-0.00035243,0.00002949,0.00000497,-0.00013110,0.0001203
 1,0.00012688,-0.00004969,0.00013333,-0.00351782,0.00096427,-0.00201753
 ,0.00002022,0.00002201,-0.00000464,-0.00013936,-0.00002597,-0.00003492
 ,0.00004125,-0.00059735,-0.00012983,-0.00003433,-0.00023225,0.00026658
 ,-0.01440657,-0.03227958,-0.03315371,0.00230603,-0.00584399,-0.0091306
 1,-0.00153533,0.00137501,-0.00129614,-0.00002449,-0.00010657,0.0000429
 3,-0.00003359,0.00006534,-0.00002024,0.00005045,-0.00000556,0.00001289
 ,0.00047336,0.00016493,0.00014865,-0.00024725,-0.00013910,-0.00026913,
 -0.00014078,0.00003597,0.00004309,-0.00014711,-0.00009520,-0.00012636,
 -0.00008360,0.00022224,0.00002270,-0.00008491,0.00011364,-0.00020629,0
 .00009071,-0.00024209,0.00027118,0.00025810,-0.00007802,0.00021127,0.0
 0001610,0.00015890,0.00011005,-0.00045284,-0.00039831,0.00022124,-0.00
 001155,0.00002247,-0.00013270,-0.00007237,-0.00007606,-0.00004053,0.00
 093784,0.00070412,-0.00089317,-0.00047811,0.00056986,0.00008375,0.0003
 1227,0.00131935,-0.00003043,0.00147156,-0.00215738,-0.00088395,0.00361
 725,-0.00771408,0.00935476,-0.00135695,-0.00193721,-0.00103923,0.05155
 234,-0.07800843,-0.01657325,-0.04411051,0.11529631,0.00069718,-0.00004
 536,0.00009345,-0.00008140,-0.00007207,0.00006707,-0.00006399,-0.00017
 065,-0.00030322,-0.00006805,0.00029712,0.00020166,-0.00002873,0.000018
 85,-0.00002472,0.00005787,0.00141236,-0.00135127,-0.00566136,0.0014689
 7,0.00017617,0.00004199,-0.00003788,0.00020819,-0.00021481,-0.00031573
 ,-0.00016962,-0.00035172,0.00032408,-0.00005222,-0.00001085,0.00015144
 ,-0.00002257,-0.00004907,0.00004189,-0.00003838,0.00142637,-0.00170296
 ,0.00217273,-0.00002048,-0.00004537,0.00003701,-0.00001035,-0.00004307
 ,-0.00000957,-0.00033311,-0.00360174,0.00223923,0.00015801,-0.00001777
 ,-0.00012090,-0.02678007,-0.02999203,-0.04486323,0.00852581,-0.0070353
 3,-0.00010724,-0.00042075,0.00271195,-0.00452507,0.00016336,0.00003642
 ,0.00003880,-0.00003183,0.00006463,-0.00001910,-0.00003188,-0.00001422
 ,-0.00001066,-0.00013395,0.00006230,-0.00010157,0.00009738,0.00001469,
 0.00007690,0.00021728,-0.00006922,-0.00003824,0.00004581,0.00009168,0.
 00011796,-0.00000486,0.00003276,-0.00000142,0.00014008,-0.00011001,0.0
 0024885,-0.00015407,0.00009693,-0.00029239,-0.00023276,0.00010816,-0.0
 0016257,0.00002858,-0.00014508,-0.00013896,0.00013877,0.00002744,0.000
 00464,0.00014691,-0.00004940,0.00013411,-0.00011294,0.00011189,-0.0000
 4075,-0.00024931,0.00033123,-0.00036913,0.00074635,0.00039763,0.000098
 12,0.00007540,-0.00024427,0.00005147,-0.00171036,-0.00258121,-0.002128
 44,-0.00296510,0.00849991,-0.00123400,-0.00263731,0.00097081,0.0023196
 3,0.01925477,-0.02225392,-0.02731522,0.01035971,0.04980757,0.07395166,
 -0.00022052,-0.00019450,-0.00016077,0.00013544,0.00003696,-0.00002296,
 0.00012685,0.00021362,-0.00009419,-0.00012158,0.00003594,0.00003078,-0
 .00001929,0.00004471,0.00001162,0.00039384,-0.00127064,0.00084910,0.00
 125842,0.00005236,-0.00011409,0.00004558,0.00010788,-0.00009001,-0.000
 17192,0.00014298,0.00008173,0.00005974,-0.00020060,-0.00016720,0.00000
 317,-0.00006903,0.00001949,0.00020143,0.00017813,0.00011121,-0.0010484
 1,-0.00024230,0.00111212,0.00000260,0.00007994,-0.00011513,-0.00015615
 ,-0.00001837,-0.00001545,0.00061667,0.00056350,0.00056004,-0.00001519,
 -0.00007497,-0.00001217,-0.00543739,0.00193206,-0.00365203,0.00288372,
 0.00045262,-0.01226886,0.00121343,-0.00006285,0.00027269,0.00010255,-0
 .00051421,0.00015728,-0.00017619,0.00036477,-0.00013742,-0.00001806,0.
 00003857,-0.00007031,0.00018401,0.00008977,0.00018048,-0.00004011,-0.0
 0013737,-0.00011860,-0.00012506,0.00008072,0.00006413,0.00004502,-0.00
 007984,-0.00007422,-0.00003713,0.00010869,-0.00005730,-0.00029185,0.00
 009913,-0.00040723,0.00029791,-0.00020887,0.00045284,0.00035475,-0.000
 30960,0.00036811,-0.00002604,0.00021765,0.00024183,-0.00068112,-0.0002
 1101,0.00005252,-0.00024928,-0.00005143,-0.00024428,0.00013790,-0.0002
 5263,0.00016861,0.00092951,0.00094813,-0.00055104,0.00011168,-0.000007
 79,-0.00031238,0.00009918,-0.00000012,-0.00013612,-0.00281582,-0.00117
 416,0.00094047,-0.00064371,-0.00022882,0.00049689,0.00125200,-0.004332
 50,0.00158483,-0.24734132,-0.07266853,-0.04786608,-0.00521488,0.003619
 10,0.00003797,0.25446978,-0.00019693,-0.00002049,-0.00004495,0.0000502
 3,0.00000435,-0.00001593,0.00000691,0.00004416,0.00002967,-0.00005708,
 0.00001183,-0.00003074,0.00000293,0.00000546,0.00000319,0.00075711,-0.
 00046634,0.00055167,0.00007421,-0.00006154,0.00030210,0.00006831,0.000
 07706,-0.00001837,0.00002013,0.00010798,0.00007148,-0.00001228,-0.0001
 5963,0.00000927,0.00000727,-0.00002725,0.00000413,0.00007433,0.0000700
 4,0.00003223,-0.00036265,0.00014528,0.00061217,0.00000101,0.00003433,-
 0.00004718,-0.00005018,-0.00000273,-0.00000538,0.00051760,-0.00004921,
 -0.00002960,-0.00000663,-0.00005484,-0.00002162,-0.00199872,0.00156280
 ,-0.00333732,-0.00164223,0.00010153,-0.00164934,0.00029889,-0.00004130
 ,-0.00000957,0.00001591,-0.00018426,0.00005101,-0.00005857,0.00012141,
 -0.00004609,-0.00000723,0.00001638,-0.00002794,0.00001290,0.00004754,0
 .00004182,0.00001279,-0.00003840,-0.00006826,-0.00006221,0.00002859,0.
 00002750,0.00004117,-0.00003946,-0.00002276,-0.00000543,0.00001330,-0.
 00001559,-0.00011937,0.00003690,-0.00016086,0.00010047,-0.00007067,0.0
 0017705,0.00014365,-0.00012543,0.00012519,-0.00001343,0.00008366,0.000
 10218,-0.00027605,-0.00003072,0.00001273,-0.00012149,-0.00000831,-0.00
 011430,0.00011239,-0.00011642,0.00007860,0.00033034,0.00039970,-0.0001
 6510,-0.00003202,0.00001095,-0.00020313,0.00009138,-0.00010486,-0.0000
 5311,-0.00118641,-0.00076345,0.00045014,0.00036778,-0.00026967,0.00037
 078,-0.00489277,0.00047442,-0.00162003,-0.06653843,-0.04004271,-0.0148
 1332,0.00184627,0.00544658,0.00150982,0.07268114,0.03375938,0.00001981
 ,-0.00003825,-0.00002958,0.00003252,0.00000044,0.00000046,0.00003042,0
 .00006900,-0.00007156,-0.00005448,0.00002544,0.00000874,-0.00000878,0.
 00001582,-0.00000238,-0.00006458,-0.00010591,0.00035172,0.00004199,0.0
 0018239,0.00000637,-0.00006467,-0.00006063,0.00002633,-0.00004409,-0.0
 0001520,0.00000366,0.00004324,0.00001515,-0.00001450,0.00000695,0.0000
 0384,0.00000797,0.00004497,0.00005099,0.00001176,-0.00034102,0.0000877
 3,-0.00019796,-0.00000151,0.00000914,-0.00002290,-0.00004912,-0.000004
 04,-0.00000813,0.00034385,0.00004708,0.00066753,0.00002029,-0.00007365
 ,0.00007690,0.00146423,-0.00095945,0.00110529,-0.01088033,-0.00242272,
 -0.00317166,0.00016891,0.00001227,-0.00045599,0.00004146,-0.00012290,0
 .00004867,-0.00004706,0.00009690,-0.00003580,-0.00001004,0.00000581,-0
 .00001860,0.00008956,0.00003378,0.00003718,-0.00005153,-0.00004348,-0.
 00002223,-0.00001598,0.00001057,0.00001498,0.00001885,-0.00002970,-0.0
 0001889,-0.00002125,0.00006605,0.00000548,-0.00005892,0.00002659,-0.00
 008529,0.00006072,-0.00007587,0.00010424,0.00007954,-0.00005836,0.0000
 8919,0.00000526,0.00004885,0.00003947,-0.00016235,-0.00005377,0.000055
 45,-0.00003523,-0.00002496,-0.00004555,0.00004363,-0.00004009,0.000001
 81,0.00015375,0.00012644,-0.00022056,0.00017300,0.00004729,-0.00000142
 ,0.00019042,0.00014351,-0.00003350,-0.00236892,-0.00068422,0.00019748,
 0.00130107,0.00098132,0.00055894,0.00195046,-0.00171505,0.00076126,-0.
 04995535,-0.01717252,-0.03063674,-0.00125995,0.00346898,0.00105212,0.0
 5921751,0.01806292,0.02994633,-0.00028544,0.00028079,0.00049890,-0.000
 17133,-0.00007681,-0.00002805,0.00027582,-0.00022000,0.00026882,0.0001
 4681,0.00018597,-0.00019781,0.00020228,0.00000980,0.00010318,-0.000780
 85,0.00124413,-0.00028220,-0.00015898,0.00024126,-0.00037398,-0.000409
 08,-0.00035753,0.00008579,0.00153341,0.00076284,-0.00083135,0.00021807
 ,0.00001049,-0.00011633,-0.00038826,0.00023974,0.00031205,-0.00002293,
 -0.00021253,-0.00081689,0.00003825,-0.00027521,0.00068454,-0.00003569,
 -0.00008087,0.00006916,0.00018141,0.00003806,0.00067674,0.00017349,-0.
 00015908,0.00038056,-0.00054221,0.00002017,-0.00031278,0.00040463,-0.0
 0007041,-0.00012981,0.00003275,0.00011762,0.00000343,0.00005760,-0.000
 10369,0.00019429,-0.00007395,-0.00026255,0.00023550,-0.00004554,0.0001
 0191,-0.00002771,0.00016092,-0.00007395,-0.00000225,0.00181955,-0.0023
 8858,0.00039950,-0.00060959,-0.00118928,-0.00080631,-0.00034774,0.0000
 6447,-0.00000573,-0.00188418,-0.00190538,-0.00120701,0.00069949,0.0006
 2789,0.00115020,-0.00173825,0.00101157,-0.00236991,-0.00196545,-0.0011
 3471,0.00614037,-0.00950192,0.00759106,-0.02810007,0.00411348,-0.00000
 925,-0.00105334,-0.01641600,-0.00450302,0.01372412,-0.09761108,0.04827
 987,0.02335408,-0.00337956,0.00021130,-0.00375764,0.00141014,0.0024814
 2,0.00183175,-0.00057385,0.00001795,-0.00064861,0.00029324,0.00030403,
 -0.00024815,-0.00000337,-0.00166662,0.00062883,-0.00010711,0.00007847,
 0.00018925,-0.00024005,0.00007299,-0.00018986,0.00021788,0.00024976,-0
 .00024701,-0.00018540,-0.00017808,-0.00000046,-0.00007417,0.00000498,-
 0.00004726,0.12557274,0.00037492,-0.00025583,-0.00028851,0.00019038,0.
 00006132,0.00002108,-0.00023060,0.00018094,-0.00025926,-0.00004426,-0.
 00011672,0.00019625,-0.00015152,0.00002198,-0.00002766,0.00037480,-0.0
 0070749,-0.00013095,0.00007273,-0.00018529,0.00027948,0.00023250,0.000
 23136,-0.00003250,-0.00096858,-0.00043252,0.00016471,-0.00028690,-0.00
 005519,0.00024440,-0.00025502,-0.00030044,-0.00018098,0.00025552,0.000
 44906,0.00048555,0.00038900,-0.00014042,-0.00062077,-0.00001233,0.0000
 6256,-0.00003060,-0.00019097,-0.00027555,-0.00028387,-0.00035538,0.000
 11815,-0.00016087,0.00017384,-0.00002428,-0.00023595,-0.00006555,0.000
 09566,0.00039715,-0.00010198,-0.00005064,-0.00016313,-0.00017390,0.000
 09908,-0.00010022,0.00014987,0.00001197,-0.00013755,-0.00002102,0.0000
 2739,-0.00001138,-0.00011540,0.00006266,-0.00000961,-0.00039738,0.0019
 3972,-0.00042728,0.00028299,0.00145128,-0.00013858,0.00039753,-0.00023
 430,-0.00003785,0.00148455,0.00123633,0.00158686,0.00060200,0.00040857
 ,-0.00021230,0.00033723,-0.00136578,0.00206559,-0.00276078,0.00362303,
 0.00006981,0.00829519,-0.00935802,0.00782184,-0.00392019,-0.00322821,0
 .00131683,0.00690832,0.00440116,-0.00048899,0.03932910,-0.02435409,-0.
 01686798,0.00063340,-0.00055617,0.00131265,-0.00169570,-0.00103173,0.0
 0066786,0.00030969,-0.00020891,0.00019158,0.00002028,-0.00056606,0.000
 24524,0.00005176,0.00164594,-0.00066406,0.00001468,-0.00002190,-0.0001
 7073,0.00014660,-0.00010101,0.00014019,-0.00041592,-0.00019883,0.00038
 970,0.00029574,0.00011688,-0.00004323,0.00022177,0.00007406,0.00006246
 ,-0.04938100,0.02745028,-0.00065348,0.00050887,0.00051412,-0.00038213,
 -0.00007457,-0.00005718,0.00044340,-0.00030434,0.00045107,0.00007335,0
 .00021582,-0.00035558,0.00034335,0.00004147,0.00012363,-0.00060199,0.0
 0133089,0.00035140,-0.00017711,0.00024759,-0.00044179,-0.00049413,-0.0
 0046552,0.00002331,0.00219483,0.00067899,-0.00063933,0.00012934,0.0002
 4296,-0.00000286,0.00006888,0.00001601,0.00034032,-0.00007730,-0.00064
 436,-0.00125147,-0.00087055,0.00049602,0.00083577,-0.00003416,-0.00017
 963,0.00008503,-0.00010420,0.00046972,0.00073328,0.00079165,-0.0002012
 9,0.00041891,0.00013773,-0.00066250,-0.00035757,0.00004598,-0.00022298
 ,-0.00081738,0.00021590,0.00003536,0.00027344,0.00029101,-0.00018422,0
 .00012073,-0.00019587,-0.00026294,0.00039737,-0.00004032,0.00010522,-0
 .00003544,0.00023115,-0.00011113,0.00000070,0.00226543,0.00260973,0.00
 410793,0.00117631,-0.00022185,-0.00057072,-0.00050378,0.00012685,0.000
 05050,-0.00132215,-0.00139020,-0.00167640,0.00002506,0.00177543,-0.000
 35515,-0.00336601,0.00348891,-0.00129826,0.01433644,0.00818828,-0.0235
 8071,-0.02653450,-0.00367685,-0.10733259,-0.00426434,-0.00354112,0.007
 15732,0.01353571,0.00209193,-0.01001353,0.01391814,-0.01684342,-0.0139
 0213,-0.00059385,0.00063700,0.00105373,0.00005647,0.00431553,-0.001423
 68,-0.00071311,-0.00027395,-0.00038809,0.00062535,0.00015167,-0.000277
 94,-0.00053301,-0.00263289,0.00092394,0.00012482,0.00005225,0.00028564
 ,-0.00012582,0.00009632,-0.00016443,0.00067220,0.00026823,-0.00073743,
 -0.00065974,-0.00025768,0.00015068,-0.00032440,-0.00010517,-0.00008609
 ,-0.00913054,0.00406557,0.14736693\\-0.00000186,0.00000261,-0.00002252
 ,0.00000185,0.00000640,0.00000053,0.00001315,0.00000151,0.00000165,-0.
 00000303,0.00000404,0.00000146,-0.00000919,-0.00000042,0.00000563,-0.0
 0004432,0.00002287,0.00000227,0.00000302,0.00000747,-0.00000163,-0.000
 00690,-0.00000274,0.00001534,0.00002287,-0.00000459,-0.00002214,-0.000
 01518,-0.00001225,0.00001764,0.00000910,-0.00000062,-0.00000197,0.0000
 1088,-0.00001157,0.00002673,0.00001817,0.00000839,-0.00002695,0.000001
 44,-0.00000056,-0.00000199,-0.00001458,0.00001072,0.00000123,-0.000001
 29,-0.00000447,0.00000067,-0.00001508,-0.00001946,-0.00000375,0.000038
 60,0.00000640,0.00001816,-0.00000719,0.00000314,-0.00000793,-0.0000118
 8,-0.00003033,-0.00000798,0.00000082,-0.00000392,-0.00000051,-0.000000
 89,0.00000266,0.00000201,0.00000743,0.00000249,0.00000550,0.00010334,0
 .00002886,-0.00000282,-0.00000893,0.00000921,0.00000742,-0.00002207,0.
 00001337,0.00002237,-0.00002441,-0.00001349,-0.00002079,-0.00002567,0.
 00000488,-0.00001579,0.00000453,0.00001735,-0.00000057,-0.00003198,-0.
 00004155,-0.00003541,0.00001271,0.00001891,-0.00000636,-0.00001284,-0.
 00000462,0.00002034,0.00003503,-0.00000989,-0.00001403,0.00001330,-0.0
 0001954,0.00002240,-0.00000682,-0.00000012,0.00001382,-0.00003754,-0.0
 0000592,-0.00000899,0.00000242,0.00000479,-0.00000034,-0.00000090,-0.0
 0000388,-0.00001101,0.00000582,0.00001298,0.00001659,0.00000350,-0.000
 00026,0.00000398,0.00000423,-0.00000205,-0.00000519,-0.00001840,0.0000
 0275,0.00000498,0.00000228,-0.00000827,0.00001230,0.00000144,0.0000028
 5,0.00000068,0.00000502,0.00000588,-0.00000501\\\@
 The archive entry for this job was punched.


 FROM WHENCE IT HAPPENS, THAT THEY WHICH TRUST TO BOOKS, DO AS THEY THAT CAST UP MANY LITTLE SUMMS INTO GREATER,
 WITHOUT CONSIDERING WETHER THOSE LITTLE SUMMES WERE RIGHTLY CAST UP OR NOT...
 AND AT LAST FINDING THE ERROUR VISIBLE, AND NOT MISTRUSTING THEIR FIRST GROUNDS,
 KNOW NOT WHICH WAY TO CLEERE THEMSELVES...
 BUT SPEND TIME IN FLUTTERING OVER THEIR BOOKES....
 AS BIRDS THAT ENTERING BY THE CHIMNEY, AND FINDING THEMSELVES INCLOSED IN A CHAMBER,
 FLUTTER AT THE FALSE LIGHT OF A GLASSE WINDOW,
 FOR WANT OF WIT TO CONSIDER WHICH WAY THEY CAME IN....
           LEVIATHAN
 Job cpu time:       1 days 20 hours 37 minutes 20.8 seconds.
 Elapsed time:       0 days  1 hours  9 minutes  3.7 seconds.
 File lengths (MBytes):  RWF=   5272 Int=      0 D2E=      0 Chk=     72 Scr=      2
 Normal termination of Gaussian 16 at Mon Dec 26 12:20:41 2022.
