 Entering Gaussian System, Link 0=/apps/GAU16/avx2/g16/g16
 Initial command:
 /apps/GAU16/avx2//g16/l1.exe "/localscratch/chesayan/sagar/Gau-78857.inp" -scrdir="/localscratch/chesayan/sagar/"
 Entering Link 1 = /apps/GAU16/avx2//g16/l1.exe PID=     78861.
  
 Copyright (c) 1988-2019, Gaussian, Inc.  All Rights Reserved.
  
 This is part of the Gaussian(R) 16 program.  It is based on
 the Gaussian(R) 09 system (copyright 2009, Gaussian, Inc.),
 the Gaussian(R) 03 system (copyright 2003, Gaussian, Inc.),
 the Gaussian(R) 98 system (copyright 1998, Gaussian, Inc.),
 the Gaussian(R) 94 system (copyright 1995, Gaussian, Inc.),
 the Gaussian 92(TM) system (copyright 1992, Gaussian, Inc.),
 the Gaussian 90(TM) system (copyright 1990, Gaussian, Inc.),
 the Gaussian 88(TM) system (copyright 1988, Gaussian, Inc.),
 the Gaussian 86(TM) system (copyright 1986, Carnegie Mellon
 University), and the Gaussian 82(TM) system (copyright 1983,
 Carnegie Mellon University). Gaussian is a federally registered
 trademark of Gaussian, Inc.
  
 This software contains proprietary and confidential information,
 including trade secrets, belonging to Gaussian, Inc.
  
 This software is provided under written license and may be
 used, copied, transmitted, or stored only in accord with that
 written license.
  
 The following legend is applicable only to US Government
 contracts under FAR:
  
                    RESTRICTED RIGHTS LEGEND
  
 Use, reproduction and disclosure by the US Government is
 subject to restrictions as set forth in subparagraphs (a)
 and (c) of the Commercial Computer Software - Restricted
 Rights clause in FAR 52.227-19.
  
 Gaussian, Inc.
 340 Quinnipiac St., Bldg. 40, Wallingford CT 06492
  
  
 ---------------------------------------------------------------
 Warning -- This program may not be used in any manner that
 competes with the business of Gaussian, Inc. or will provide
 assistance to any competitor of Gaussian, Inc.  The licensee
 of this program is prohibited from giving any competitor of
 Gaussian, Inc. access to this program.  By using this program,
 the user acknowledges that Gaussian, Inc. is engaged in the
 business of creating and licensing software in the field of
 computational chemistry and represents and warrants to the
 licensee that it is not a competitor of Gaussian, Inc. and that
 it will not use this program in any manner prohibited above.
 ---------------------------------------------------------------
  

 Cite this work as:
 Gaussian 16, Revision C.01,
 M. J. Frisch, G. W. Trucks, H. B. Schlegel, G. E. Scuseria, 
 M. A. Robb, J. R. Cheeseman, G. Scalmani, V. Barone, 
 G. A. Petersson, H. Nakatsuji, X. Li, M. Caricato, A. V. Marenich, 
 J. Bloino, B. G. Janesko, R. Gomperts, B. Mennucci, H. P. Hratchian, 
 J. V. Ortiz, A. F. Izmaylov, J. L. Sonnenberg, D. Williams-Young, 
 F. Ding, F. Lipparini, F. Egidi, J. Goings, B. Peng, A. Petrone, 
 T. Henderson, D. Ranasinghe, V. G. Zakrzewski, J. Gao, N. Rega, 
 G. Zheng, W. Liang, M. Hada, M. Ehara, K. Toyota, R. Fukuda, 
 J. Hasegawa, M. Ishida, T. Nakajima, Y. Honda, O. Kitao, H. Nakai, 
 T. Vreven, K. Throssell, J. A. Montgomery, Jr., J. E. Peralta, 
 F. Ogliaro, M. J. Bearpark, J. J. Heyd, E. N. Brothers, K. N. Kudin, 
 V. N. Staroverov, T. A. Keith, R. Kobayashi, J. Normand, 
 K. Raghavachari, A. P. Rendell, J. C. Burant, S. S. Iyengar, 
 J. Tomasi, M. Cossi, J. M. Millam, M. Klene, C. Adamo, R. Cammi, 
 J. W. Ochterski, R. L. Martin, K. Morokuma, O. Farkas, 
 J. B. Foresman, and D. J. Fox, Gaussian, Inc., Wallingford CT, 2019.
 
 ******************************************
 Gaussian 16:  ES64L-G16RevC.01  3-Jul-2019
                26-Dec-2022 
 ******************************************
 %nprocshared=48
 Will use up to   48 processors via shared memory.
 %mem=100GB
 ---------------------------------------------------------
 # opt freq b3lyp/gen nosymm pseudo=read scf=maxcycles=500
 ---------------------------------------------------------
 1/18=20,19=15,26=3,38=1/1,3;
 2/9=110,12=2,15=1,17=6,18=5,40=1/2;
 3/5=7,11=2,16=1,17=8,25=1,30=1,71=1,74=-5/1,2,3;
 4//1;
 5/5=2,7=500,38=5/2;
 6/7=2,8=2,9=2,10=2,28=1/1;
 7/30=1/1,2,3,16;
 1/18=20,19=15,26=3/3(2);
 2/9=110,15=1/2;
 99//99;
 2/9=110,15=1/2;
 3/5=7,6=1,11=2,16=1,17=8,25=1,30=1,71=1,74=-5,82=7/1,2,3;
 4/5=5,16=3,69=1/1;
 5/5=2,7=500,38=5/2;
 7/30=1/1,2,3,16;
 1/18=20,19=15,26=3/3(-5);
 2/9=110,15=1/2;
 6/7=2,8=2,9=2,10=2,19=2,28=1/1;
 99/9=1/99;
 -------------------
 Title Card Required
 -------------------
 Symbolic Z-matrix:
 Charge =  0 Multiplicity = 1
 42                    0.82149   1.32365   11.91721 
 16                    1.56264   3.47815   12.55831 
 16                   -1.40634   1.35865   12.63255 
 16                    0.14258   1.10788   9.65348 
 16                    2.83946   0.04115   11.20521 
 42                   -1.76798   2.40085   10.4448 
 16                   -2.2254    2.27477   8.10203 
 16                   -1.0197    4.49952   10.71748 
 42                    1.1697    3.30801   10.1441 
 16                    0.53549   3.91145   7.79141 
 16                    3.20775   2.4449    9.13114 
 42                    3.45352   2.5302    11.5306 
 42                   -1.82697   4.65711   8.2947 
 16                    4.55002   1.97641   13.74493 
 16                    4.94835   4.34404   11.62655 
 16                   -3.78336   5.74637   9.28835 
 16                   -0.66      6.88984   8.64016 
 42                   -4.1309    3.38176   9.0593 
 16                   -6.62178   4.16704   9.67314 
 16                   -4.05017   2.50371   11.17108 
 42                    3.28163   0.1605    13.47 
 16                    4.21286  -1.58867   14.2319 
 16                    1.27227   0.4745    14.34432 
 42                    1.58231   6.20513   7.64968 
 16                    0.84264   6.08165   5.33643 
 16                    1.86148   5.7762    10.23966 
 42                    3.73976   4.70787   9.66916 
 16                    3.63172   4.92579   7.1627 
 16                    5.27519   6.78132   9.60978 
 42                    4.24747   7.12502   7.67007 
 16                    5.56454   7.87394   6.01935 
 16                    2.38322   8.55232   8.00234 
 42                    1.45215   8.29659   5.83629 
 16                    2.90788   8.94603   4.24071 
 16                   -0.55356   9.26103   5.80023 
 42                   -1.20167   6.89615   6.45378 
 16                   -2.05568   4.72143   5.86685 
 16                   -3.35815   8.04314   6.53823 
 42                   -3.84596   5.89058   6.9153 
 16                   -5.60519   5.17382   5.32366 
 16                   -6.39208   6.3951    6.85426 
 42                   -6.71935   4.04189   7.48768 
 16                   -5.19353   2.32405   7.18171 
 16                   -8.65292   3.4143    6.92512 
 42                    4.82551   7.85071   3.89558 
 16                    4.33279   5.62127   3.06695 
 1                     4.05909   4.75355   4.07876 
 1                     5.53233   5.07491   2.71546 
 16                    6.4987    8.80485   2.16407 
 1                     6.82302   7.80471   1.34954 
 1                     7.72976   8.79416   2.66735 
 

 GradGradGradGradGradGradGradGradGradGradGradGradGradGradGradGradGradGrad
 Berny optimization.
 Initialization pass.
                           ----------------------------
                           !    Initial Parameters    !
                           ! (Angstroms and Degrees)  !
 --------------------------                            --------------------------
 ! Name  Definition              Value          Derivative Info.                !
 --------------------------------------------------------------------------------
 ! R1    R(1,2)                  2.3669         estimate D2E/DX2                !
 ! R2    R(1,3)                  2.3401         estimate D2E/DX2                !
 ! R3    R(1,4)                  2.3732         estimate D2E/DX2                !
 ! R4    R(1,5)                  2.4948         estimate D2E/DX2                !
 ! R5    R(1,9)                  2.6838         estimate D2E/DX2                !
 ! R6    R(1,12)                 2.9211         estimate D2E/DX2                !
 ! R7    R(1,23)                 2.6106         estimate D2E/DX2                !
 ! R8    R(2,9)                  2.4519         estimate D2E/DX2                !
 ! R9    R(2,12)                 2.3516         estimate D2E/DX2                !
 ! R10   R(3,6)                  2.4501         estimate D2E/DX2                !
 ! R11   R(4,6)                  2.4389         estimate D2E/DX2                !
 ! R12   R(4,9)                  2.4771         estimate D2E/DX2                !
 ! R13   R(5,12)                 2.5842         estimate D2E/DX2                !
 ! R14   R(5,21)                 2.3106         estimate D2E/DX2                !
 ! R15   R(6,7)                  2.3903         estimate D2E/DX2                !
 ! R16   R(6,8)                  2.2447         estimate D2E/DX2                !
 ! R17   R(6,9)                  3.0892         estimate D2E/DX2                !
 ! R18   R(6,13)                 3.1172         estimate D2E/DX2                !
 ! R19   R(6,18)                 2.9095         estimate D2E/DX2                !
 ! R20   R(6,20)                 2.3972         estimate D2E/DX2                !
 ! R21   R(7,13)                 2.4231         estimate D2E/DX2                !
 ! R22   R(7,18)                 2.4026         estimate D2E/DX2                !
 ! R23   R(8,9)                  2.5577         estimate D2E/DX2                !
 ! R24   R(8,13)                 2.5586         estimate D2E/DX2                !
 ! R25   R(9,10)                 2.5103         estimate D2E/DX2                !
 ! R26   R(9,11)                 2.4341         estimate D2E/DX2                !
 ! R27   R(9,12)                 2.7827         estimate D2E/DX2                !
 ! R28   R(9,26)                 2.5651         estimate D2E/DX2                !
 ! R29   R(9,27)                 2.9649         estimate D2E/DX2                !
 ! R30   R(10,13)                2.5279         estimate D2E/DX2                !
 ! R31   R(10,24)                2.5252         estimate D2E/DX2                !
 ! R32   R(11,12)                2.4135         estimate D2E/DX2                !
 ! R33   R(11,27)                2.3861         estimate D2E/DX2                !
 ! R34   R(12,14)                2.5322         estimate D2E/DX2                !
 ! R35   R(12,15)                2.3524         estimate D2E/DX2                !
 ! R36   R(12,21)                3.067          estimate D2E/DX2                !
 ! R37   R(12,27)                2.8791         estimate D2E/DX2                !
 ! R38   R(13,16)                2.4498         estimate D2E/DX2                !
 ! R39   R(13,17)                2.5429         estimate D2E/DX2                !
 ! R40   R(13,18)                2.7421         estimate D2E/DX2                !
 ! R41   R(13,36)                2.9654         estimate D2E/DX2                !
 ! R42   R(13,37)                2.4395         estimate D2E/DX2                !
 ! R43   R(13,39)                2.7387         estimate D2E/DX2                !
 ! R44   R(14,21)                2.232          estimate D2E/DX2                !
 ! R45   R(15,27)                2.329          estimate D2E/DX2                !
 ! R46   R(16,18)                2.401          estimate D2E/DX2                !
 ! R47   R(16,39)                2.3783         estimate D2E/DX2                !
 ! R48   R(17,24)                2.5452         estimate D2E/DX2                !
 ! R49   R(17,36)                2.2525         estimate D2E/DX2                !
 ! R50   R(18,19)                2.6829         estimate D2E/DX2                !
 ! R51   R(18,20)                2.2885         estimate D2E/DX2                !
 ! R52   R(18,42)                3.0993         estimate D2E/DX2                !
 ! R53   R(18,43)                2.4028         estimate D2E/DX2                !
 ! R54   R(19,42)                2.1912         estimate D2E/DX2                !
 ! R55   R(21,22)                2.123          estimate D2E/DX2                !
 ! R56   R(21,23)                2.2137         estimate D2E/DX2                !
 ! R57   R(24,25)                2.4318         estimate D2E/DX2                !
 ! R58   R(24,26)                2.6401         estimate D2E/DX2                !
 ! R59   R(24,28)                2.4645         estimate D2E/DX2                !
 ! R60   R(24,30)                2.8195         estimate D2E/DX2                !
 ! R61   R(24,32)                2.505          estimate D2E/DX2                !
 ! R62   R(24,33)                2.7712         estimate D2E/DX2                !
 ! R63   R(24,36)                3.1078         estimate D2E/DX2                !
 ! R64   R(25,33)                2.351          estimate D2E/DX2                !
 ! R65   R(25,36)                2.468          estimate D2E/DX2                !
 ! R66   R(26,27)                2.2349         estimate D2E/DX2                !
 ! R67   R(27,28)                2.5182         estimate D2E/DX2                !
 ! R68   R(27,29)                2.5807         estimate D2E/DX2                !
 ! R69   R(28,30)                2.3395         estimate D2E/DX2                !
 ! R70   R(29,30)                2.2219         estimate D2E/DX2                !
 ! R71   R(30,31)                2.2406         estimate D2E/DX2                !
 ! R72   R(30,32)                2.3713         estimate D2E/DX2                !
 ! R73   R(31,45)                2.2488         estimate D2E/DX2                !
 ! R74   R(32,33)                2.3715         estimate D2E/DX2                !
 ! R75   R(33,34)                2.2554         estimate D2E/DX2                !
 ! R76   R(33,35)                2.2258         estimate D2E/DX2                !
 ! R77   R(33,36)                3.0635         estimate D2E/DX2                !
 ! R78   R(34,45)                2.2352         estimate D2E/DX2                !
 ! R79   R(35,36)                2.5377         estimate D2E/DX2                !
 ! R80   R(36,37)                2.409          estimate D2E/DX2                !
 ! R81   R(36,38)                2.444          estimate D2E/DX2                !
 ! R82   R(36,39)                2.8664         estimate D2E/DX2                !
 ! R83   R(37,39)                2.3814         estimate D2E/DX2                !
 ! R84   R(38,39)                2.2391         estimate D2E/DX2                !
 ! R85   R(39,40)                2.4783         estimate D2E/DX2                !
 ! R86   R(39,41)                2.5963         estimate D2E/DX2                !
 ! R87   R(40,41)                2.1103         estimate D2E/DX2                !
 ! R88   R(40,42)                2.6843         estimate D2E/DX2                !
 ! R89   R(41,42)                2.4588         estimate D2E/DX2                !
 ! R90   R(42,43)                2.3179         estimate D2E/DX2                !
 ! R91   R(42,44)                2.1093         estimate D2E/DX2                !
 ! R92   R(45,46)                2.4289         estimate D2E/DX2                !
 ! R93   R(45,49)                2.59           estimate D2E/DX2                !
 ! R94   R(46,47)                1.3607         estimate D2E/DX2                !
 ! R95   R(46,48)                1.3642         estimate D2E/DX2                !
 ! R96   R(49,50)                1.33           estimate D2E/DX2                !
 ! R97   R(49,51)                1.33           estimate D2E/DX2                !
 ! A1    A(2,1,3)              101.6359         estimate D2E/DX2                !
 ! A2    A(2,1,4)              115.5127         estimate D2E/DX2                !
 ! A3    A(2,1,5)              106.9751         estimate D2E/DX2                !
 ! A4    A(2,1,23)              89.4376         estimate D2E/DX2                !
 ! A5    A(3,1,4)               91.1805         estimate D2E/DX2                !
 ! A6    A(3,1,5)              149.882          estimate D2E/DX2                !
 ! A7    A(3,1,9)              108.3256         estimate D2E/DX2                !
 ! A8    A(3,1,12)             153.1363         estimate D2E/DX2                !
 ! A9    A(3,1,23)              83.3993         estimate D2E/DX2                !
 ! A10   A(4,1,5)               84.9761         estimate D2E/DX2                !
 ! A11   A(4,1,12)              99.734          estimate D2E/DX2                !
 ! A12   A(4,1,23)             155.0494         estimate D2E/DX2                !
 ! A13   A(5,1,9)               94.9677         estimate D2E/DX2                !
 ! A14   A(5,1,23)              87.6188         estimate D2E/DX2                !
 ! A15   A(9,1,23)             146.3391         estimate D2E/DX2                !
 ! A16   A(12,1,23)             95.8436         estimate D2E/DX2                !
 ! A17   A(1,3,6)               82.7574         estimate D2E/DX2                !
 ! A18   A(1,4,6)               82.3229         estimate D2E/DX2                !
 ! A19   A(1,5,21)              81.2864         estimate D2E/DX2                !
 ! A20   A(3,6,4)               87.0525         estimate D2E/DX2                !
 ! A21   A(3,6,7)              151.7567         estimate D2E/DX2                !
 ! A22   A(3,6,8)              103.8879         estimate D2E/DX2                !
 ! A23   A(3,6,9)               94.0982         estimate D2E/DX2                !
 ! A24   A(3,6,13)             157.9036         estimate D2E/DX2                !
 ! A25   A(3,6,18)             133.5098         estimate D2E/DX2                !
 ! A26   A(3,6,20)              83.5834         estimate D2E/DX2                !
 ! A27   A(4,6,7)               78.6936         estimate D2E/DX2                !
 ! A28   A(4,6,8)              105.8982         estimate D2E/DX2                !
 ! A29   A(4,6,13)             100.0642         estimate D2E/DX2                !
 ! A30   A(4,6,18)             131.3331         estimate D2E/DX2                !
 ! A31   A(4,6,20)             150.094          estimate D2E/DX2                !
 ! A32   A(7,6,8)              103.4245         estimate D2E/DX2                !
 ! A33   A(7,6,9)               95.8579         estimate D2E/DX2                !
 ! A34   A(7,6,20)              96.7204         estimate D2E/DX2                !
 ! A35   A(8,6,18)              90.7661         estimate D2E/DX2                !
 ! A36   A(8,6,20)             103.9129         estimate D2E/DX2                !
 ! A37   A(9,6,13)              74.8296         estimate D2E/DX2                !
 ! A38   A(9,6,18)             128.8251         estimate D2E/DX2                !
 ! A39   A(9,6,20)             157.2531         estimate D2E/DX2                !
 ! A40   A(13,6,20)             99.2014         estimate D2E/DX2                !
 ! A41   A(9,8,13)              94.9619         estimate D2E/DX2                !
 ! A42   A(1,9,6)               66.1209         estimate D2E/DX2                !
 ! A43   A(1,9,8)               94.8919         estimate D2E/DX2                !
 ! A44   A(1,9,10)             139.8317         estimate D2E/DX2                !
 ! A45   A(1,9,11)              96.9727         estimate D2E/DX2                !
 ! A46   A(1,9,26)             136.2055         estimate D2E/DX2                !
 ! A47   A(1,9,27)             124.569          estimate D2E/DX2                !
 ! A48   A(2,9,4)              108.8503         estimate D2E/DX2                !
 ! A49   A(2,9,6)               94.4122         estimate D2E/DX2                !
 ! A50   A(2,9,8)               83.3458         estimate D2E/DX2                !
 ! A51   A(2,9,10)             161.1959         estimate D2E/DX2                !
 ! A52   A(2,9,11)             107.4685         estimate D2E/DX2                !
 ! A53   A(2,9,26)              81.5655         estimate D2E/DX2                !
 ! A54   A(2,9,27)              89.2002         estimate D2E/DX2                !
 ! A55   A(4,9,8)               95.9251         estimate D2E/DX2                !
 ! A56   A(4,9,10)              85.5912         estimate D2E/DX2                !
 ! A57   A(4,9,11)              87.1233         estimate D2E/DX2                !
 ! A58   A(4,9,12)             100.9954         estimate D2E/DX2                !
 ! A59   A(4,9,27)             138.3355         estimate D2E/DX2                !
 ! A60   A(6,9,10)              85.5016         estimate D2E/DX2                !
 ! A61   A(6,9,11)             137.1057         estimate D2E/DX2                !
 ! A62   A(6,9,12)             130.5333         estimate D2E/DX2                !
 ! A63   A(6,9,26)             122.3706         estimate D2E/DX2                !
 ! A64   A(8,9,10)              83.2149         estimate D2E/DX2                !
 ! A65   A(8,9,12)             136.1419         estimate D2E/DX2                !
 ! A66   A(8,9,26)              76.9529         estimate D2E/DX2                !
 ! A67   A(8,9,27)             123.9155         estimate D2E/DX2                !
 ! A68   A(10,9,11)             84.6494         estimate D2E/DX2                !
 ! A69   A(10,9,12)            137.8619         estimate D2E/DX2                !
 ! A70   A(10,9,26)             82.6313         estimate D2E/DX2                !
 ! A71   A(10,9,27)             87.4421         estimate D2E/DX2                !
 ! A72   A(11,9,26)             97.5211         estimate D2E/DX2                !
 ! A73   A(12,9,26)             91.6647         estimate D2E/DX2                !
 ! A74   A(9,10,13)             96.9162         estimate D2E/DX2                !
 ! A75   A(9,10,24)             99.5676         estimate D2E/DX2                !
 ! A76   A(13,10,24)            97.5078         estimate D2E/DX2                !
 ! A77   A(1,12,11)             91.4454         estimate D2E/DX2                !
 ! A78   A(1,12,14)            100.6085         estimate D2E/DX2                !
 ! A79   A(1,12,15)            152.3321         estimate D2E/DX2                !
 ! A80   A(1,12,21)             63.0423         estimate D2E/DX2                !
 ! A81   A(1,12,27)            119.1809         estimate D2E/DX2                !
 ! A82   A(2,12,5)             104.6088         estimate D2E/DX2                !
 ! A83   A(2,12,11)            111.5207         estimate D2E/DX2                !
 ! A84   A(2,12,14)             93.1056         estimate D2E/DX2                !
 ! A85   A(2,12,15)            100.5039         estimate D2E/DX2                !
 ! A86   A(2,12,21)             89.4295         estimate D2E/DX2                !
 ! A87   A(2,12,27)             93.3017         estimate D2E/DX2                !
 ! A88   A(5,12,9)              90.6569         estimate D2E/DX2                !
 ! A89   A(5,12,11)             79.4311         estimate D2E/DX2                !
 ! A90   A(5,12,14)             90.135          estimate D2E/DX2                !
 ! A91   A(5,12,15)            153.9995         estimate D2E/DX2                !
 ! A92   A(5,12,27)            132.1234         estimate D2E/DX2                !
 ! A93   A(9,12,14)            148.4548         estimate D2E/DX2                !
 ! A94   A(9,12,15)            109.0464         estimate D2E/DX2                !
 ! A95   A(9,12,21)            119.0157         estimate D2E/DX2                !
 ! A96   A(11,12,14)           154.9212         estimate D2E/DX2                !
 ! A97   A(11,12,15)            97.6149         estimate D2E/DX2                !
 ! A98   A(11,12,21)           126.5591         estimate D2E/DX2                !
 ! A99   A(14,12,15)            81.8249         estimate D2E/DX2                !
 ! A100  A(14,12,27)           133.4511         estimate D2E/DX2                !
 ! A101  A(15,12,21)           127.2709         estimate D2E/DX2                !
 ! A102  A(6,13,10)             84.6145         estimate D2E/DX2                !
 ! A103  A(6,13,16)             93.2775         estimate D2E/DX2                !
 ! A104  A(6,13,17)            122.2175         estimate D2E/DX2                !
 ! A105  A(6,13,37)            135.0179         estimate D2E/DX2                !
 ! A106  A(6,13,39)            133.4201         estimate D2E/DX2                !
 ! A107  A(7,13,8)              93.8198         estimate D2E/DX2                !
 ! A108  A(7,13,10)             81.2475         estimate D2E/DX2                !
 ! A109  A(7,13,16)            109.7609         estimate D2E/DX2                !
 ! A110  A(7,13,17)            161.7182         estimate D2E/DX2                !
 ! A111  A(7,13,36)            136.6922         estimate D2E/DX2                !
 ! A112  A(7,13,37)             86.0648         estimate D2E/DX2                !
 ! A113  A(7,13,39)            106.3522         estimate D2E/DX2                !
 ! A114  A(8,13,10)             82.848          estimate D2E/DX2                !
 ! A115  A(8,13,16)             83.9886         estimate D2E/DX2                !
 ! A116  A(8,13,17)             77.3287         estimate D2E/DX2                !
 ! A117  A(8,13,18)             88.4192         estimate D2E/DX2                !
 ! A118  A(8,13,36)            124.5991         estimate D2E/DX2                !
 ! A119  A(8,13,39)            137.4994         estimate D2E/DX2                !
 ! A120  A(10,13,16)           163.3825         estimate D2E/DX2                !
 ! A121  A(10,13,17)            81.7881         estimate D2E/DX2                !
 ! A122  A(10,13,18)           134.7105         estimate D2E/DX2                !
 ! A123  A(10,13,36)            84.3794         estimate D2E/DX2                !
 ! A124  A(10,13,37)            84.1025         estimate D2E/DX2                !
 ! A125  A(10,13,39)           136.18           estimate D2E/DX2                !
 ! A126  A(16,13,17)            85.4678         estimate D2E/DX2                !
 ! A127  A(16,13,36)            94.8458         estimate D2E/DX2                !
 ! A128  A(16,13,37)           108.4868         estimate D2E/DX2                !
 ! A129  A(17,13,18)           139.1188         estimate D2E/DX2                !
 ! A130  A(17,13,37)            98.9216         estimate D2E/DX2                !
 ! A131  A(17,13,39)            90.6467         estimate D2E/DX2                !
 ! A132  A(18,13,36)           134.5438         estimate D2E/DX2                !
 ! A133  A(18,13,37)           102.1809         estimate D2E/DX2                !
 ! A134  A(18,13,39)            74.3661         estimate D2E/DX2                !
 ! A135  A(18,16,39)            87.7488         estimate D2E/DX2                !
 ! A136  A(13,17,24)            96.6168         estimate D2E/DX2                !
 ! A137  A(6,18,16)             99.7326         estimate D2E/DX2                !
 ! A138  A(6,18,19)            138.0512         estimate D2E/DX2                !
 ! A139  A(6,18,43)            125.6531         estimate D2E/DX2                !
 ! A140  A(7,18,16)            112.1463         estimate D2E/DX2                !
 ! A141  A(7,18,19)            164.2248         estimate D2E/DX2                !
 ! A142  A(7,18,20)             99.3755         estimate D2E/DX2                !
 ! A143  A(7,18,42)            123.9488         estimate D2E/DX2                !
 ! A144  A(7,18,43)             80.5948         estimate D2E/DX2                !
 ! A145  A(13,18,19)           135.0506         estimate D2E/DX2                !
 ! A146  A(13,18,20)           113.9613         estimate D2E/DX2                !
 ! A147  A(13,18,42)           117.4679         estimate D2E/DX2                !
 ! A148  A(13,18,43)           111.0036         estimate D2E/DX2                !
 ! A149  A(16,18,19)            79.8803         estimate D2E/DX2                !
 ! A150  A(16,18,20)           106.5432         estimate D2E/DX2                !
 ! A151  A(16,18,42)            87.6789         estimate D2E/DX2                !
 ! A152  A(16,18,43)           124.897          estimate D2E/DX2                !
 ! A153  A(19,18,20)            86.2114         estimate D2E/DX2                !
 ! A154  A(19,18,43)            84.0901         estimate D2E/DX2                !
 ! A155  A(20,18,42)           125.3884         estimate D2E/DX2                !
 ! A156  A(20,18,43)           124.5966         estimate D2E/DX2                !
 ! A157  A(5,21,14)            105.7535         estimate D2E/DX2                !
 ! A158  A(5,21,22)            113.1496         estimate D2E/DX2                !
 ! A159  A(5,21,23)            102.7531         estimate D2E/DX2                !
 ! A160  A(12,21,22)           147.0283         estimate D2E/DX2                !
 ! A161  A(12,21,23)           101.0128         estimate D2E/DX2                !
 ! A162  A(14,21,22)           112.138          estimate D2E/DX2                !
 ! A163  A(14,21,23)           110.5951         estimate D2E/DX2                !
 ! A164  A(22,21,23)           111.917          estimate D2E/DX2                !
 ! A165  A(1,23,21)             80.5418         estimate D2E/DX2                !
 ! A166  A(10,24,17)            81.7957         estimate D2E/DX2                !
 ! A167  A(10,24,25)            83.1757         estimate D2E/DX2                !
 ! A168  A(10,24,26)            80.8631         estimate D2E/DX2                !
 ! A169  A(10,24,28)            83.3564         estimate D2E/DX2                !
 ! A170  A(10,24,30)           133.4547         estimate D2E/DX2                !
 ! A171  A(10,24,33)           134.6487         estimate D2E/DX2                !
 ! A172  A(10,24,36)            81.501          estimate D2E/DX2                !
 ! A173  A(17,24,25)            96.6541         estimate D2E/DX2                !
 ! A174  A(17,24,26)            75.8237         estimate D2E/DX2                !
 ! A175  A(17,24,28)           161.6516         estimate D2E/DX2                !
 ! A176  A(17,24,30)           137.9187         estimate D2E/DX2                !
 ! A177  A(17,24,32)            88.5571         estimate D2E/DX2                !
 ! A178  A(17,24,33)            90.5866         estimate D2E/DX2                !
 ! A179  A(25,24,26)           163.1632         estimate D2E/DX2                !
 ! A180  A(25,24,28)            92.2128         estimate D2E/DX2                !
 ! A181  A(25,24,30)           108.1171         estimate D2E/DX2                !
 ! A182  A(25,24,32)           106.1852         estimate D2E/DX2                !
 ! A183  A(26,24,28)            91.2363         estimate D2E/DX2                !
 ! A184  A(26,24,30)            86.9023         estimate D2E/DX2                !
 ! A185  A(26,24,32)            88.8723         estimate D2E/DX2                !
 ! A186  A(26,24,33)           140.313          estimate D2E/DX2                !
 ! A187  A(26,24,36)           120.555          estimate D2E/DX2                !
 ! A188  A(28,24,32)           104.3796         estimate D2E/DX2                !
 ! A189  A(28,24,33)           107.5494         estimate D2E/DX2                !
 ! A190  A(28,24,36)           141.6567         estimate D2E/DX2                !
 ! A191  A(30,24,33)            78.6324         estimate D2E/DX2                !
 ! A192  A(30,24,36)           140.9873         estimate D2E/DX2                !
 ! A193  A(32,24,36)            97.599          estimate D2E/DX2                !
 ! A194  A(9,26,24)             95.2364         estimate D2E/DX2                !
 ! A195  A(24,26,27)            85.1876         estimate D2E/DX2                !
 ! A196  A(9,27,15)            103.9716         estimate D2E/DX2                !
 ! A197  A(9,27,28)             99.3872         estimate D2E/DX2                !
 ! A198  A(9,27,29)            153.9951         estimate D2E/DX2                !
 ! A199  A(11,27,15)            99.0356         estimate D2E/DX2                !
 ! A200  A(11,27,26)           108.8762         estimate D2E/DX2                !
 ! A201  A(11,27,28)            81.2618         estimate D2E/DX2                !
 ! A202  A(11,27,29)           152.8019         estimate D2E/DX2                !
 ! A203  A(12,27,26)            96.4863         estimate D2E/DX2                !
 ! A204  A(12,27,28)           134.8057         estimate D2E/DX2                !
 ! A205  A(12,27,29)           132.9784         estimate D2E/DX2                !
 ! A206  A(15,27,26)           107.2329         estimate D2E/DX2                !
 ! A207  A(15,27,28)           150.7247         estimate D2E/DX2                !
 ! A208  A(15,27,29)            80.5672         estimate D2E/DX2                !
 ! A209  A(26,27,28)           100.1748         estimate D2E/DX2                !
 ! A210  A(26,27,29)            96.998          estimate D2E/DX2                !
 ! A211  A(28,27,29)            86.1639         estimate D2E/DX2                !
 ! A212  A(24,28,27)            83.3345         estimate D2E/DX2                !
 ! A213  A(27,28,30)            81.6164         estimate D2E/DX2                !
 ! A214  A(27,29,30)            82.4829         estimate D2E/DX2                !
 ! A215  A(24,30,29)           113.1451         estimate D2E/DX2                !
 ! A216  A(24,30,31)           131.2508         estimate D2E/DX2                !
 ! A217  A(28,30,29)            99.5352         estimate D2E/DX2                !
 ! A218  A(28,30,31)           108.0077         estimate D2E/DX2                !
 ! A219  A(28,30,32)           112.9104         estimate D2E/DX2                !
 ! A220  A(29,30,31)           115.0223         estimate D2E/DX2                !
 ! A221  A(29,30,32)           109.5373         estimate D2E/DX2                !
 ! A222  A(31,30,32)           111.3566         estimate D2E/DX2                !
 ! A223  A(30,31,45)           119.9425         estimate D2E/DX2                !
 ! A224  A(30,32,33)            96.6479         estimate D2E/DX2                !
 ! A225  A(24,33,34)           130.5371         estimate D2E/DX2                !
 ! A226  A(24,33,35)           112.33           estimate D2E/DX2                !
 ! A227  A(25,33,32)           113.4265         estimate D2E/DX2                !
 ! A228  A(25,33,34)           106.7504         estimate D2E/DX2                !
 ! A229  A(25,33,35)            99.8551         estimate D2E/DX2                !
 ! A230  A(32,33,34)           111.2048         estimate D2E/DX2                !
 ! A231  A(32,33,35)           108.775          estimate D2E/DX2                !
 ! A232  A(32,33,36)           101.8469         estimate D2E/DX2                !
 ! A233  A(34,33,35)           116.4479         estimate D2E/DX2                !
 ! A234  A(34,33,36)           146.444          estimate D2E/DX2                !
 ! A235  A(33,34,45)           121.4577         estimate D2E/DX2                !
 ! A236  A(13,36,24)            77.4149         estimate D2E/DX2                !
 ! A237  A(13,36,25)           101.9195         estimate D2E/DX2                !
 ! A238  A(13,36,33)           130.7652         estimate D2E/DX2                !
 ! A239  A(13,36,35)           156.5473         estimate D2E/DX2                !
 ! A240  A(13,36,38)            98.4444         estimate D2E/DX2                !
 ! A241  A(17,36,25)           103.8468         estimate D2E/DX2                !
 ! A242  A(17,36,33)            89.3474         estimate D2E/DX2                !
 ! A243  A(17,36,35)           101.0214         estimate D2E/DX2                !
 ! A244  A(17,36,37)           108.6152         estimate D2E/DX2                !
 ! A245  A(17,36,38)           100.3676         estimate D2E/DX2                !
 ! A246  A(17,36,39)            93.7022         estimate D2E/DX2                !
 ! A247  A(24,36,35)            94.4466         estimate D2E/DX2                !
 ! A248  A(24,36,37)           102.1575         estimate D2E/DX2                !
 ! A249  A(24,36,38)           151.8217         estimate D2E/DX2                !
 ! A250  A(24,36,39)           133.3478         estimate D2E/DX2                !
 ! A251  A(25,36,35)            88.82           estimate D2E/DX2                !
 ! A252  A(25,36,37)            83.4204         estimate D2E/DX2                !
 ! A253  A(25,36,38)           154.3432         estimate D2E/DX2                !
 ! A254  A(25,36,39)           136.1577         estimate D2E/DX2                !
 ! A255  A(33,36,37)           132.1184         estimate D2E/DX2                !
 ! A256  A(33,36,38)           123.8334         estimate D2E/DX2                !
 ! A257  A(35,36,37)           150.3511         estimate D2E/DX2                !
 ! A258  A(35,36,38)            78.2815         estimate D2E/DX2                !
 ! A259  A(35,36,39)           127.1561         estimate D2E/DX2                !
 ! A260  A(37,36,38)            96.8508         estimate D2E/DX2                !
 ! A261  A(13,39,38)           110.9275         estimate D2E/DX2                !
 ! A262  A(13,39,40)           135.7681         estimate D2E/DX2                !
 ! A263  A(13,39,41)           145.3163         estimate D2E/DX2                !
 ! A264  A(16,39,36)            99.0704         estimate D2E/DX2                !
 ! A265  A(16,39,37)           112.9384         estimate D2E/DX2                !
 ! A266  A(16,39,38)           102.744          estimate D2E/DX2                !
 ! A267  A(16,39,40)           129.9392         estimate D2E/DX2                !
 ! A268  A(16,39,41)            93.5003         estimate D2E/DX2                !
 ! A269  A(36,39,40)           130.7602         estimate D2E/DX2                !
 ! A270  A(36,39,41)           146.3774         estimate D2E/DX2                !
 ! A271  A(37,39,38)           103.5353         estimate D2E/DX2                !
 ! A272  A(37,39,40)            96.2521         estimate D2E/DX2                !
 ! A273  A(37,39,41)           145.3125         estimate D2E/DX2                !
 ! A274  A(38,39,40)           108.9369         estimate D2E/DX2                !
 ! A275  A(38,39,41)            91.311          estimate D2E/DX2                !
 ! A276  A(39,40,42)            84.1942         estimate D2E/DX2                !
 ! A277  A(39,41,42)            86.474          estimate D2E/DX2                !
 ! A278  A(18,42,40)            98.7409         estimate D2E/DX2                !
 ! A279  A(18,42,41)           102.9033         estimate D2E/DX2                !
 ! A280  A(18,42,44)           146.8734         estimate D2E/DX2                !
 ! A281  A(19,42,40)           139.5953         estimate D2E/DX2                !
 ! A282  A(19,42,41)           101.3231         estimate D2E/DX2                !
 ! A283  A(19,42,43)            98.3183         estimate D2E/DX2                !
 ! A284  A(19,42,44)           108.8942         estimate D2E/DX2                !
 ! A285  A(40,42,43)            86.1511         estimate D2E/DX2                !
 ! A286  A(40,42,44)           106.9144         estimate D2E/DX2                !
 ! A287  A(41,42,43)           125.9907         estimate D2E/DX2                !
 ! A288  A(41,42,44)           109.759          estimate D2E/DX2                !
 ! A289  A(43,42,44)           110.348          estimate D2E/DX2                !
 ! A290  A(31,45,34)            97.5308         estimate D2E/DX2                !
 ! A291  A(31,45,46)           113.4735         estimate D2E/DX2                !
 ! A292  A(31,45,49)           114.5357         estimate D2E/DX2                !
 ! A293  A(34,45,46)           109.1733         estimate D2E/DX2                !
 ! A294  A(34,45,49)           118.4855         estimate D2E/DX2                !
 ! A295  A(46,45,49)           103.9519         estimate D2E/DX2                !
 ! A296  A(45,46,47)           111.8661         estimate D2E/DX2                !
 ! A297  A(45,46,48)           106.0898         estimate D2E/DX2                !
 ! A298  A(47,46,48)            96.4917         estimate D2E/DX2                !
 ! A299  A(45,49,50)           106.8541         estimate D2E/DX2                !
 ! A300  A(45,49,51)           110.0            estimate D2E/DX2                !
 ! A301  A(50,49,51)            90.0            estimate D2E/DX2                !
 ! A302  L(4,9,26,2,-1)        190.4158         estimate D2E/DX2                !
 ! A303  L(6,9,27,1,-1)        190.6899         estimate D2E/DX2                !
 ! A304  L(8,9,11,1,-1)        191.8646         estimate D2E/DX2                !
 ! A305  L(21,12,27,2,-1)      182.7312         estimate D2E/DX2                !
 ! A306  L(6,13,36,10,-1)      168.9938         estimate D2E/DX2                !
 ! A307  L(8,13,37,7,-1)       179.8846         estimate D2E/DX2                !
 ! A308  L(6,18,42,16,-1)      187.4115         estimate D2E/DX2                !
 ! A309  L(10,24,32,17,-1)     170.3528         estimate D2E/DX2                !
 ! A310  L(33,36,39,17,-1)     183.0496         estimate D2E/DX2                !
 ! A311  L(4,9,26,2,-2)        188.2537         estimate D2E/DX2                !
 ! A312  L(6,9,27,1,-2)        185.9735         estimate D2E/DX2                !
 ! A313  L(8,9,11,1,-2)        175.2279         estimate D2E/DX2                !
 ! A314  L(21,12,27,2,-2)      179.5012         estimate D2E/DX2                !
 ! A315  L(6,13,36,10,-2)      188.4961         estimate D2E/DX2                !
 ! A316  L(8,13,37,7,-2)       193.2186         estimate D2E/DX2                !
 ! A317  L(6,18,42,16,-2)      179.208          estimate D2E/DX2                !
 ! A318  L(10,24,32,17,-2)     171.786          estimate D2E/DX2                !
 ! A319  L(33,36,39,17,-2)     173.3868         estimate D2E/DX2                !
 ! D1    D(2,1,3,6)             85.6503         estimate D2E/DX2                !
 ! D2    D(4,1,3,6)            -30.7146         estimate D2E/DX2                !
 ! D3    D(5,1,3,6)           -112.7226         estimate D2E/DX2                !
 ! D4    D(9,1,3,6)             26.1071         estimate D2E/DX2                !
 ! D5    D(12,1,3,6)            83.8001         estimate D2E/DX2                !
 ! D6    D(23,1,3,6)           173.7066         estimate D2E/DX2                !
 ! D7    D(2,1,4,6)            -72.5894         estimate D2E/DX2                !
 ! D8    D(3,1,4,6)             30.9058         estimate D2E/DX2                !
 ! D9    D(5,1,4,6)           -179.0165         estimate D2E/DX2                !
 ! D10   D(12,1,4,6)          -124.44           estimate D2E/DX2                !
 ! D11   D(23,1,4,6)           107.7108         estimate D2E/DX2                !
 ! D12   D(2,1,5,21)            69.6867         estimate D2E/DX2                !
 ! D13   D(3,1,5,21)           -91.4819         estimate D2E/DX2                !
 ! D14   D(4,1,5,21)          -175.1479         estimate D2E/DX2                !
 ! D15   D(9,1,5,21)           127.3671         estimate D2E/DX2                !
 ! D16   D(23,1,5,21)          -18.9974         estimate D2E/DX2                !
 ! D17   D(3,1,9,6)            -22.2496         estimate D2E/DX2                !
 ! D18   D(3,1,9,8)             14.1259         estimate D2E/DX2                !
 ! D19   D(3,1,9,10)           -71.1454         estimate D2E/DX2                !
 ! D20   D(3,1,9,11)          -161.102          estimate D2E/DX2                !
 ! D21   D(3,1,9,26)            90.3501         estimate D2E/DX2                !
 ! D22   D(3,1,9,27)           151.7769         estimate D2E/DX2                !
 ! D23   D(5,1,9,6)            138.3864         estimate D2E/DX2                !
 ! D24   D(5,1,9,8)            174.7618         estimate D2E/DX2                !
 ! D25   D(5,1,9,10)            89.4906         estimate D2E/DX2                !
 ! D26   D(5,1,9,11)            -0.4661         estimate D2E/DX2                !
 ! D27   D(5,1,9,26)          -109.0139         estimate D2E/DX2                !
 ! D28   D(5,1,9,27)           -47.5871         estimate D2E/DX2                !
 ! D29   D(23,1,9,6)          -128.4444         estimate D2E/DX2                !
 ! D30   D(23,1,9,8)           -92.069          estimate D2E/DX2                !
 ! D31   D(23,1,9,10)         -177.3402         estimate D2E/DX2                !
 ! D32   D(23,1,9,11)           92.7031         estimate D2E/DX2                !
 ! D33   D(23,1,9,26)          -15.8447         estimate D2E/DX2                !
 ! D34   D(23,1,9,27)           45.5821         estimate D2E/DX2                !
 ! D35   D(3,1,12,11)         -114.174          estimate D2E/DX2                !
 ! D36   D(3,1,12,14)           87.9311         estimate D2E/DX2                !
 ! D37   D(3,1,12,15)           -4.687          estimate D2E/DX2                !
 ! D38   D(3,1,12,21)          114.8574         estimate D2E/DX2                !
 ! D39   D(3,1,12,27)          -67.0273         estimate D2E/DX2                !
 ! D40   D(4,1,12,11)           -1.5352         estimate D2E/DX2                !
 ! D41   D(4,1,12,14)         -159.43           estimate D2E/DX2                !
 ! D42   D(4,1,12,15)          107.9519         estimate D2E/DX2                !
 ! D43   D(4,1,12,21)         -132.5037         estimate D2E/DX2                !
 ! D44   D(4,1,12,27)           45.6116         estimate D2E/DX2                !
 ! D45   D(23,1,12,11)         158.9023         estimate D2E/DX2                !
 ! D46   D(23,1,12,14)           1.0075         estimate D2E/DX2                !
 ! D47   D(23,1,12,15)         -91.6106         estimate D2E/DX2                !
 ! D48   D(23,1,12,21)          27.9338         estimate D2E/DX2                !
 ! D49   D(23,1,12,27)        -153.9509         estimate D2E/DX2                !
 ! D50   D(2,1,23,21)          -87.1092         estimate D2E/DX2                !
 ! D51   D(3,1,23,21)          171.1091         estimate D2E/DX2                !
 ! D52   D(4,1,23,21)           92.6198         estimate D2E/DX2                !
 ! D53   D(5,1,23,21)           19.9063         estimate D2E/DX2                !
 ! D54   D(9,1,23,21)          -75.4829         estimate D2E/DX2                !
 ! D55   D(12,1,23,21)         -35.9062         estimate D2E/DX2                !
 ! D56   D(1,2,9,12)           -82.8748         estimate D2E/DX2                !
 ! D57   D(1,3,6,4)             29.838          estimate D2E/DX2                !
 ! D58   D(1,3,6,7)             89.1271         estimate D2E/DX2                !
 ! D59   D(1,3,6,8)            -75.8157         estimate D2E/DX2                !
 ! D60   D(1,3,6,9)            -21.3364         estimate D2E/DX2                !
 ! D61   D(1,3,6,13)           -79.9384         estimate D2E/DX2                !
 ! D62   D(1,3,6,18)           179.4876         estimate D2E/DX2                !
 ! D63   D(1,3,6,20)          -178.6094         estimate D2E/DX2                !
 ! D64   D(1,4,6,3)            -29.4135         estimate D2E/DX2                !
 ! D65   D(1,4,6,7)            175.0997         estimate D2E/DX2                !
 ! D66   D(1,4,6,8)             74.1919         estimate D2E/DX2                !
 ! D67   D(1,4,6,13)           129.5163         estimate D2E/DX2                !
 ! D68   D(1,4,6,18)           179.7985         estimate D2E/DX2                !
 ! D69   D(1,4,6,20)          -101.115          estimate D2E/DX2                !
 ! D70   D(1,5,21,14)          -92.8563         estimate D2E/DX2                !
 ! D71   D(1,5,21,22)          144.0202         estimate D2E/DX2                !
 ! D72   D(1,5,21,23)           23.1571         estimate D2E/DX2                !
 ! D73   D(3,6,9,1)             20.1316         estimate D2E/DX2                !
 ! D74   D(3,6,9,2)            -27.9092         estimate D2E/DX2                !
 ! D75   D(3,6,9,10)           170.9522         estimate D2E/DX2                !
 ! D76   D(3,6,9,11)            93.7849         estimate D2E/DX2                !
 ! D77   D(3,6,9,12)            15.2523         estimate D2E/DX2                !
 ! D78   D(3,6,9,26)          -110.7129         estimate D2E/DX2                !
 ! D79   D(7,6,9,1)           -133.4014         estimate D2E/DX2                !
 ! D80   D(7,6,9,2)            178.5577         estimate D2E/DX2                !
 ! D81   D(7,6,9,10)            17.4192         estimate D2E/DX2                !
 ! D82   D(7,6,9,11)           -59.7481         estimate D2E/DX2                !
 ! D83   D(7,6,9,12)          -138.2808         estimate D2E/DX2                !
 ! D84   D(7,6,9,26)            95.754          estimate D2E/DX2                !
 ! D85   D(13,6,9,1)          -179.2997         estimate D2E/DX2                !
 ! D86   D(13,6,9,2)           132.6594         estimate D2E/DX2                !
 ! D87   D(13,6,9,10)          -28.4791         estimate D2E/DX2                !
 ! D88   D(13,6,9,11)         -105.6464         estimate D2E/DX2                !
 ! D89   D(13,6,9,12)          175.8209         estimate D2E/DX2                !
 ! D90   D(13,6,9,26)           49.8557         estimate D2E/DX2                !
 ! D91   D(18,6,9,1)          -179.1946         estimate D2E/DX2                !
 ! D92   D(18,6,9,2)           132.7646         estimate D2E/DX2                !
 ! D93   D(18,6,9,10)          -28.374          estimate D2E/DX2                !
 ! D94   D(18,6,9,11)         -105.5413         estimate D2E/DX2                !
 ! D95   D(18,6,9,12)          175.9261         estimate D2E/DX2                !
 ! D96   D(18,6,9,26)           49.9609         estimate D2E/DX2                !
 ! D97   D(20,6,9,1)           103.304          estimate D2E/DX2                !
 ! D98   D(20,6,9,2)            55.2631         estimate D2E/DX2                !
 ! D99   D(20,6,9,10)         -105.8754         estimate D2E/DX2                !
 ! D100  D(20,6,9,11)          176.9573         estimate D2E/DX2                !
 ! D101  D(20,6,9,12)           98.4246         estimate D2E/DX2                !
 ! D102  D(20,6,9,26)          -27.5406         estimate D2E/DX2                !
 ! D103  D(3,6,13,10)           90.2035         estimate D2E/DX2                !
 ! D104  D(3,6,13,16)          -73.2647         estimate D2E/DX2                !
 ! D105  D(3,6,13,17)           13.4408         estimate D2E/DX2                !
 ! D106  D(3,6,13,37)          166.2974         estimate D2E/DX2                !
 ! D107  D(3,6,13,39)         -114.4891         estimate D2E/DX2                !
 ! D108  D(4,6,13,10)          -17.1539         estimate D2E/DX2                !
 ! D109  D(4,6,13,16)          179.3779         estimate D2E/DX2                !
 ! D110  D(4,6,13,17)          -93.9166         estimate D2E/DX2                !
 ! D111  D(4,6,13,37)           58.94           estimate D2E/DX2                !
 ! D112  D(4,6,13,39)          138.1535         estimate D2E/DX2                !
 ! D113  D(9,6,13,10)           28.3035         estimate D2E/DX2                !
 ! D114  D(9,6,13,16)         -135.1647         estimate D2E/DX2                !
 ! D115  D(9,6,13,17)          -48.4592         estimate D2E/DX2                !
 ! D116  D(9,6,13,37)          104.3974         estimate D2E/DX2                !
 ! D117  D(9,6,13,39)         -176.3891         estimate D2E/DX2                !
 ! D118  D(20,6,13,10)        -174.1704         estimate D2E/DX2                !
 ! D119  D(20,6,13,16)          22.3613         estimate D2E/DX2                !
 ! D120  D(20,6,13,17)         109.0669         estimate D2E/DX2                !
 ! D121  D(20,6,13,37)         -98.0765         estimate D2E/DX2                !
 ! D122  D(20,6,13,39)         -18.863          estimate D2E/DX2                !
 ! D123  D(3,6,18,16)          105.9131         estimate D2E/DX2                !
 ! D124  D(3,6,18,19)           20.2633         estimate D2E/DX2                !
 ! D125  D(3,6,18,43)         -107.2212         estimate D2E/DX2                !
 ! D126  D(4,6,18,16)         -116.311          estimate D2E/DX2                !
 ! D127  D(4,6,18,19)          158.0392         estimate D2E/DX2                !
 ! D128  D(4,6,18,43)           30.5547         estimate D2E/DX2                !
 ! D129  D(8,6,18,16)           -4.1876         estimate D2E/DX2                !
 ! D130  D(8,6,18,19)          -89.8374         estimate D2E/DX2                !
 ! D131  D(8,6,18,43)          142.6781         estimate D2E/DX2                !
 ! D132  D(9,6,18,16)          -47.0124         estimate D2E/DX2                !
 ! D133  D(9,6,18,19)         -132.6622         estimate D2E/DX2                !
 ! D134  D(9,6,18,43)           99.8533         estimate D2E/DX2                !
 ! D135  D(6,7,13,18)          -77.1085         estimate D2E/DX2                !
 ! D136  D(13,8,9,1)          -128.8626         estimate D2E/DX2                !
 ! D137  D(13,8,9,2)           177.6109         estimate D2E/DX2                !
 ! D138  D(13,8,9,4)           -74.0327         estimate D2E/DX2                !
 ! D139  D(13,8,9,10)           10.7935         estimate D2E/DX2                !
 ! D140  D(13,8,9,12)          173.3386         estimate D2E/DX2                !
 ! D141  D(13,8,9,26)           94.7657         estimate D2E/DX2                !
 ! D142  D(13,8,9,27)           93.0837         estimate D2E/DX2                !
 ! D143  D(9,8,13,7)            69.9467         estimate D2E/DX2                !
 ! D144  D(9,8,13,10)          -10.7257         estimate D2E/DX2                !
 ! D145  D(9,8,13,16)          179.4397         estimate D2E/DX2                !
 ! D146  D(9,8,13,17)          -93.8718         estimate D2E/DX2                !
 ! D147  D(9,8,13,18)          124.7354         estimate D2E/DX2                !
 ! D148  D(9,8,13,36)          -88.8097         estimate D2E/DX2                !
 ! D149  D(9,8,13,39)         -170.6787         estimate D2E/DX2                !
 ! D150  D(1,9,10,13)           78.587          estimate D2E/DX2                !
 ! D151  D(1,9,10,24)          177.4412         estimate D2E/DX2                !
 ! D152  D(2,9,10,13)          -55.6129         estimate D2E/DX2                !
 ! D153  D(2,9,10,24)           43.2413         estimate D2E/DX2                !
 ! D154  D(4,9,10,13)           85.5484         estimate D2E/DX2                !
 ! D155  D(4,9,10,24)         -175.5974         estimate D2E/DX2                !
 ! D156  D(6,9,10,13)           34.8662         estimate D2E/DX2                !
 ! D157  D(6,9,10,24)          133.7204         estimate D2E/DX2                !
 ! D158  D(8,9,10,13)          -10.9652         estimate D2E/DX2                !
 ! D159  D(8,9,10,24)           87.889          estimate D2E/DX2                !
 ! D160  D(11,9,10,13)         173.0647         estimate D2E/DX2                !
 ! D161  D(11,9,10,24)         -88.0811         estimate D2E/DX2                !
 ! D162  D(12,9,10,13)        -172.9198         estimate D2E/DX2                !
 ! D163  D(12,9,10,24)         -74.0656         estimate D2E/DX2                !
 ! D164  D(26,9,10,13)         -88.6171         estimate D2E/DX2                !
 ! D165  D(26,9,10,24)          10.2371         estimate D2E/DX2                !
 ! D166  D(27,9,10,13)        -135.5608         estimate D2E/DX2                !
 ! D167  D(27,9,10,24)         -36.7066         estimate D2E/DX2                !
 ! D168  D(4,9,12,5)             1.7802         estimate D2E/DX2                !
 ! D169  D(4,9,12,14)          -89.548          estimate D2E/DX2                !
 ! D170  D(4,9,12,15)          164.5002         estimate D2E/DX2                !
 ! D171  D(4,9,12,21)          -37.967          estimate D2E/DX2                !
 ! D172  D(6,9,12,5)            48.4587         estimate D2E/DX2                !
 ! D173  D(6,9,12,14)          -42.8695         estimate D2E/DX2                !
 ! D174  D(6,9,12,15)         -148.8213         estimate D2E/DX2                !
 ! D175  D(6,9,12,21)            8.7115         estimate D2E/DX2                !
 ! D176  D(8,9,12,5)           112.5107         estimate D2E/DX2                !
 ! D177  D(8,9,12,14)           21.1825         estimate D2E/DX2                !
 ! D178  D(8,9,12,15)          -84.7693         estimate D2E/DX2                !
 ! D179  D(8,9,12,21)           72.7635         estimate D2E/DX2                !
 ! D180  D(10,9,12,5)          -93.8454         estimate D2E/DX2                !
 ! D181  D(10,9,12,14)         174.8264         estimate D2E/DX2                !
 ! D182  D(10,9,12,15)          68.8746         estimate D2E/DX2                !
 ! D183  D(10,9,12,21)        -133.5926         estimate D2E/DX2                !
 ! D184  D(26,9,12,5)         -174.6896         estimate D2E/DX2                !
 ! D185  D(26,9,12,14)          93.9823         estimate D2E/DX2                !
 ! D186  D(26,9,12,15)         -11.9696         estimate D2E/DX2                !
 ! D187  D(26,9,12,21)         145.5633         estimate D2E/DX2                !
 ! D188  D(1,9,26,24)         -177.7779         estimate D2E/DX2                !
 ! D189  D(2,9,26,24)         -179.4669         estimate D2E/DX2                !
 ! D190  D(6,9,26,24)          -89.5765         estimate D2E/DX2                !
 ! D191  D(8,9,26,24)          -94.3939         estimate D2E/DX2                !
 ! D192  D(10,9,26,24)          -9.6908         estimate D2E/DX2                !
 ! D193  D(11,9,26,24)          73.8834         estimate D2E/DX2                !
 ! D194  D(12,9,26,24)         128.405          estimate D2E/DX2                !
 ! D195  D(1,9,27,15)          -22.0929         estimate D2E/DX2                !
 ! D196  D(1,9,27,28)          140.1213         estimate D2E/DX2                !
 ! D197  D(1,9,27,29)         -119.263          estimate D2E/DX2                !
 ! D198  D(2,9,27,15)           22.4993         estimate D2E/DX2                !
 ! D199  D(2,9,27,28)         -175.2865         estimate D2E/DX2                !
 ! D200  D(2,9,27,29)          -74.6708         estimate D2E/DX2                !
 ! D201  D(4,9,27,15)          -95.5602         estimate D2E/DX2                !
 ! D202  D(4,9,27,28)           66.654          estimate D2E/DX2                !
 ! D203  D(4,9,27,29)          167.2697         estimate D2E/DX2                !
 ! D204  D(8,9,27,15)          103.9284         estimate D2E/DX2                !
 ! D205  D(8,9,27,28)          -93.8574         estimate D2E/DX2                !
 ! D206  D(8,9,27,29)            6.7584         estimate D2E/DX2                !
 ! D207  D(10,9,27,15)        -176.0075         estimate D2E/DX2                !
 ! D208  D(10,9,27,28)         -13.7933         estimate D2E/DX2                !
 ! D209  D(10,9,27,29)          86.8225         estimate D2E/DX2                !
 ! D210  D(9,10,13,6)          -34.5612         estimate D2E/DX2                !
 ! D211  D(9,10,13,7)          -84.0353         estimate D2E/DX2                !
 ! D212  D(9,10,13,8)           10.9701         estimate D2E/DX2                !
 ! D213  D(9,10,13,16)          48.8306         estimate D2E/DX2                !
 ! D214  D(9,10,13,17)          89.1255         estimate D2E/DX2                !
 ! D215  D(9,10,13,18)         -69.6291         estimate D2E/DX2                !
 ! D216  D(9,10,13,36)         136.9427         estimate D2E/DX2                !
 ! D217  D(9,10,13,37)        -170.9454         estimate D2E/DX2                !
 ! D218  D(9,10,13,39)         171.4296         estimate D2E/DX2                !
 ! D219  D(24,10,13,6)        -135.2144         estimate D2E/DX2                !
 ! D220  D(24,10,13,7)         175.3115         estimate D2E/DX2                !
 ! D221  D(24,10,13,8)         -89.683          estimate D2E/DX2                !
 ! D222  D(24,10,13,16)        -51.8226         estimate D2E/DX2                !
 ! D223  D(24,10,13,17)        -11.5277         estimate D2E/DX2                !
 ! D224  D(24,10,13,18)       -170.2823         estimate D2E/DX2                !
 ! D225  D(24,10,13,36)         36.2895         estimate D2E/DX2                !
 ! D226  D(24,10,13,37)         88.4014         estimate D2E/DX2                !
 ! D227  D(24,10,13,39)         70.7764         estimate D2E/DX2                !
 ! D228  D(9,10,24,17)         -86.8426         estimate D2E/DX2                !
 ! D229  D(9,10,24,25)         175.3893         estimate D2E/DX2                !
 ! D230  D(9,10,24,26)          -9.9885         estimate D2E/DX2                !
 ! D231  D(9,10,24,28)          82.3461         estimate D2E/DX2                !
 ! D232  D(9,10,24,30)          66.8449         estimate D2E/DX2                !
 ! D233  D(9,10,24,33)        -169.4955         estimate D2E/DX2                !
 ! D234  D(9,10,24,36)        -132.9891         estimate D2E/DX2                !
 ! D235  D(13,10,24,17)         11.517          estimate D2E/DX2                !
 ! D236  D(13,10,24,25)        -86.251          estimate D2E/DX2                !
 ! D237  D(13,10,24,26)         88.3712         estimate D2E/DX2                !
 ! D238  D(13,10,24,28)       -179.2942         estimate D2E/DX2                !
 ! D239  D(13,10,24,30)        165.2045         estimate D2E/DX2                !
 ! D240  D(13,10,24,33)        -71.1358         estimate D2E/DX2                !
 ! D241  D(13,10,24,36)        -34.6295         estimate D2E/DX2                !
 ! D242  D(9,11,12,27)         -80.5709         estimate D2E/DX2                !
 ! D243  D(1,12,21,22)         143.0639         estimate D2E/DX2                !
 ! D244  D(1,12,21,23)         -34.0469         estimate D2E/DX2                !
 ! D245  D(2,12,21,22)        -170.2411         estimate D2E/DX2                !
 ! D246  D(2,12,21,23)          12.6481         estimate D2E/DX2                !
 ! D247  D(9,12,21,22)         139.5537         estimate D2E/DX2                !
 ! D248  D(9,12,21,23)         -37.5571         estimate D2E/DX2                !
 ! D249  D(11,12,21,22)         73.058          estimate D2E/DX2                !
 ! D250  D(11,12,21,23)       -104.0528         estimate D2E/DX2                !
 ! D251  D(15,12,21,22)        -67.4427         estimate D2E/DX2                !
 ! D252  D(15,12,21,23)        115.4465         estimate D2E/DX2                !
 ! D253  D(1,12,27,26)          41.6026         estimate D2E/DX2                !
 ! D254  D(1,12,27,28)         -69.7133         estimate D2E/DX2                !
 ! D255  D(1,12,27,29)         147.4778         estimate D2E/DX2                !
 ! D256  D(2,12,27,26)          -5.9963         estimate D2E/DX2                !
 ! D257  D(2,12,27,28)        -117.3122         estimate D2E/DX2                !
 ! D258  D(2,12,27,29)          99.8789         estimate D2E/DX2                !
 ! D259  D(5,12,27,26)         107.1317         estimate D2E/DX2                !
 ! D260  D(5,12,27,28)          -4.1841         estimate D2E/DX2                !
 ! D261  D(5,12,27,29)        -146.993          estimate D2E/DX2                !
 ! D262  D(14,12,27,26)       -103.4315         estimate D2E/DX2                !
 ! D263  D(14,12,27,28)        145.2527         estimate D2E/DX2                !
 ! D264  D(14,12,27,29)          2.4438         estimate D2E/DX2                !
 ! D265  D(6,13,17,24)          89.6999         estimate D2E/DX2                !
 ! D266  D(7,13,17,24)          33.4507         estimate D2E/DX2                !
 ! D267  D(8,13,17,24)          95.8772         estimate D2E/DX2                !
 ! D268  D(10,13,17,24)         11.414          estimate D2E/DX2                !
 ! D269  D(16,13,17,24)       -179.278          estimate D2E/DX2                !
 ! D270  D(18,13,17,24)        168.2437         estimate D2E/DX2                !
 ! D271  D(37,13,17,24)        -71.247          estimate D2E/DX2                !
 ! D272  D(39,13,17,24)       -125.2557         estimate D2E/DX2                !
 ! D273  D(8,13,18,19)          99.2757         estimate D2E/DX2                !
 ! D274  D(8,13,18,20)         -10.7754         estimate D2E/DX2                !
 ! D275  D(8,13,18,42)         150.1829         estimate D2E/DX2                !
 ! D276  D(8,13,18,43)        -157.5155         estimate D2E/DX2                !
 ! D277  D(10,13,18,19)        177.5881         estimate D2E/DX2                !
 ! D278  D(10,13,18,20)         67.5371         estimate D2E/DX2                !
 ! D279  D(10,13,18,42)       -131.5047         estimate D2E/DX2                !
 ! D280  D(10,13,18,43)        -79.2031         estimate D2E/DX2                !
 ! D281  D(17,13,18,19)         30.8165         estimate D2E/DX2                !
 ! D282  D(17,13,18,20)        -79.2346         estimate D2E/DX2                !
 ! D283  D(17,13,18,42)         81.7237         estimate D2E/DX2                !
 ! D284  D(17,13,18,43)        134.0253         estimate D2E/DX2                !
 ! D285  D(36,13,18,19)        -41.0654         estimate D2E/DX2                !
 ! D286  D(36,13,18,20)       -151.1165         estimate D2E/DX2                !
 ! D287  D(36,13,18,42)          9.8418         estimate D2E/DX2                !
 ! D288  D(36,13,18,43)         62.1433         estimate D2E/DX2                !
 ! D289  D(37,13,18,19)        -88.6403         estimate D2E/DX2                !
 ! D290  D(37,13,18,20)        161.3086         estimate D2E/DX2                !
 ! D291  D(37,13,18,42)        -37.7331         estimate D2E/DX2                !
 ! D292  D(37,13,18,43)         14.5684         estimate D2E/DX2                !
 ! D293  D(39,13,18,19)        -41.4034         estimate D2E/DX2                !
 ! D294  D(39,13,18,20)       -151.4544         estimate D2E/DX2                !
 ! D295  D(39,13,18,42)          9.5039         estimate D2E/DX2                !
 ! D296  D(39,13,18,43)         61.8054         estimate D2E/DX2                !
 ! D297  D(7,13,36,24)        -100.1384         estimate D2E/DX2                !
 ! D298  D(7,13,36,25)         -56.0754         estimate D2E/DX2                !
 ! D299  D(7,13,36,33)        -101.1778         estimate D2E/DX2                !
 ! D300  D(7,13,36,35)        -171.7768         estimate D2E/DX2                !
 ! D301  D(7,13,36,38)         108.2268         estimate D2E/DX2                !
 ! D302  D(8,13,36,24)          48.0538         estimate D2E/DX2                !
 ! D303  D(8,13,36,25)          92.1168         estimate D2E/DX2                !
 ! D304  D(8,13,36,33)          47.0143         estimate D2E/DX2                !
 ! D305  D(8,13,36,35)         -23.5846         estimate D2E/DX2                !
 ! D306  D(8,13,36,38)        -103.5811         estimate D2E/DX2                !
 ! D307  D(10,13,36,24)        -29.2447         estimate D2E/DX2                !
 ! D308  D(10,13,36,25)         14.8182         estimate D2E/DX2                !
 ! D309  D(10,13,36,33)        -30.2842         estimate D2E/DX2                !
 ! D310  D(10,13,36,35)       -100.8832         estimate D2E/DX2                !
 ! D311  D(10,13,36,38)        179.1204         estimate D2E/DX2                !
 ! D312  D(16,13,36,24)        134.0857         estimate D2E/DX2                !
 ! D313  D(16,13,36,25)        178.1487         estimate D2E/DX2                !
 ! D314  D(16,13,36,33)        133.0462         estimate D2E/DX2                !
 ! D315  D(16,13,36,35)         62.4473         estimate D2E/DX2                !
 ! D316  D(16,13,36,38)        -17.5492         estimate D2E/DX2                !
 ! D317  D(18,13,36,24)        177.245          estimate D2E/DX2                !
 ! D318  D(18,13,36,25)       -138.6921         estimate D2E/DX2                !
 ! D319  D(18,13,36,33)        176.2055         estimate D2E/DX2                !
 ! D320  D(18,13,36,35)        105.6065         estimate D2E/DX2                !
 ! D321  D(18,13,36,38)         25.6101         estimate D2E/DX2                !
 ! D322  D(6,13,39,38)         145.9865         estimate D2E/DX2                !
 ! D323  D(6,13,39,40)         -61.0279         estimate D2E/DX2                !
 ! D324  D(6,13,39,41)          19.4271         estimate D2E/DX2                !
 ! D325  D(7,13,39,38)        -165.3317         estimate D2E/DX2                !
 ! D326  D(7,13,39,40)         -12.3462         estimate D2E/DX2                !
 ! D327  D(7,13,39,41)          68.1089         estimate D2E/DX2                !
 ! D328  D(8,13,39,38)          79.6469         estimate D2E/DX2                !
 ! D329  D(8,13,39,40)        -127.3675         estimate D2E/DX2                !
 ! D330  D(8,13,39,41)         -46.9125         estimate D2E/DX2                !
 ! D331  D(10,13,39,38)        -70.9319         estimate D2E/DX2                !
 ! D332  D(10,13,39,40)         82.0537         estimate D2E/DX2                !
 ! D333  D(10,13,39,41)        162.5087         estimate D2E/DX2                !
 ! D334  D(17,13,39,38)          7.8501         estimate D2E/DX2                !
 ! D335  D(17,13,39,40)        160.8357         estimate D2E/DX2                !
 ! D336  D(17,13,39,41)       -118.7092         estimate D2E/DX2                !
 ! D337  D(18,13,39,38)        149.2947         estimate D2E/DX2                !
 ! D338  D(18,13,39,40)        -57.7197         estimate D2E/DX2                !
 ! D339  D(18,13,39,41)         22.7354         estimate D2E/DX2                !
 ! D340  D(39,16,18,6)         122.1186         estimate D2E/DX2                !
 ! D341  D(39,16,18,7)          68.8502         estimate D2E/DX2                !
 ! D342  D(39,16,18,19)       -100.4968         estimate D2E/DX2                !
 ! D343  D(39,16,18,20)        176.5703         estimate D2E/DX2                !
 ! D344  D(39,16,18,42)        -57.0894         estimate D2E/DX2                !
 ! D345  D(39,16,18,43)        -25.0938         estimate D2E/DX2                !
 ! D346  D(18,16,39,36)       -118.4361         estimate D2E/DX2                !
 ! D347  D(18,16,39,37)        -64.1393         estimate D2E/DX2                !
 ! D348  D(18,16,39,38)       -175.0108         estimate D2E/DX2                !
 ! D349  D(18,16,39,40)         56.4301         estimate D2E/DX2                !
 ! D350  D(18,16,39,41)         92.8496         estimate D2E/DX2                !
 ! D351  D(13,17,24,10)        -11.4261         estimate D2E/DX2                !
 ! D352  D(13,17,24,25)         70.6598         estimate D2E/DX2                !
 ! D353  D(13,17,24,26)        -94.0111         estimate D2E/DX2                !
 ! D354  D(13,17,24,28)        -47.7154         estimate D2E/DX2                !
 ! D355  D(13,17,24,30)       -162.7323         estimate D2E/DX2                !
 ! D356  D(13,17,24,32)        176.7878         estimate D2E/DX2                !
 ! D357  D(13,17,24,33)        123.6939         estimate D2E/DX2                !
 ! D358  D(7,18,42,40)         -48.7168         estimate D2E/DX2                !
 ! D359  D(7,18,42,41)         -97.6786         estimate D2E/DX2                !
 ! D360  D(7,18,42,44)          92.0206         estimate D2E/DX2                !
 ! D361  D(13,18,42,40)         16.7535         estimate D2E/DX2                !
 ! D362  D(13,18,42,41)        -32.2083         estimate D2E/DX2                !
 ! D363  D(13,18,42,44)        157.4909         estimate D2E/DX2                !
 ! D364  D(16,18,42,40)         66.5936         estimate D2E/DX2                !
 ! D365  D(16,18,42,41)         17.6318         estimate D2E/DX2                !
 ! D366  D(16,18,42,44)       -152.669          estimate D2E/DX2                !
 ! D367  D(20,18,42,40)        175.3024         estimate D2E/DX2                !
 ! D368  D(20,18,42,41)        126.3407         estimate D2E/DX2                !
 ! D369  D(20,18,42,44)        -43.9602         estimate D2E/DX2                !
 ! D370  D(5,21,23,1)          -22.1228         estimate D2E/DX2                !
 ! D371  D(12,21,23,1)          34.478          estimate D2E/DX2                !
 ! D372  D(14,21,23,1)          90.361          estimate D2E/DX2                !
 ! D373  D(22,21,23,1)        -143.8275         estimate D2E/DX2                !
 ! D374  D(10,24,26,9)           9.6765         estimate D2E/DX2                !
 ! D375  D(10,24,26,27)         85.0561         estimate D2E/DX2                !
 ! D376  D(17,24,26,9)          93.4505         estimate D2E/DX2                !
 ! D377  D(17,24,26,27)        168.8302         estimate D2E/DX2                !
 ! D378  D(25,24,26,9)          28.4167         estimate D2E/DX2                !
 ! D379  D(25,24,26,27)        103.7964         estimate D2E/DX2                !
 ! D380  D(28,24,26,9)         -73.3923         estimate D2E/DX2                !
 ! D381  D(28,24,26,27)          1.9873         estimate D2E/DX2                !
 ! D382  D(30,24,26,9)        -125.2617         estimate D2E/DX2                !
 ! D383  D(30,24,26,27)        -49.8821         estimate D2E/DX2                !
 ! D384  D(32,24,26,9)        -177.7531         estimate D2E/DX2                !
 ! D385  D(32,24,26,27)       -102.3734         estimate D2E/DX2                !
 ! D386  D(33,24,26,9)         166.7206         estimate D2E/DX2                !
 ! D387  D(33,24,26,27)       -117.8998         estimate D2E/DX2                !
 ! D388  D(36,24,26,9)          84.085          estimate D2E/DX2                !
 ! D389  D(36,24,26,27)        159.4647         estimate D2E/DX2                !
 ! D390  D(10,24,28,27)        -82.4221         estimate D2E/DX2                !
 ! D391  D(17,24,28,27)        -46.2817         estimate D2E/DX2                !
 ! D392  D(25,24,28,27)       -165.2865         estimate D2E/DX2                !
 ! D393  D(26,24,28,27)         -1.7694         estimate D2E/DX2                !
 ! D394  D(32,24,28,27)         87.3832         estimate D2E/DX2                !
 ! D395  D(33,24,28,27)        142.7313         estimate D2E/DX2                !
 ! D396  D(36,24,28,27)       -149.6482         estimate D2E/DX2                !
 ! D397  D(10,24,30,29)        -66.319          estimate D2E/DX2                !
 ! D398  D(10,24,30,31)        104.3341         estimate D2E/DX2                !
 ! D399  D(17,24,30,29)         72.7887         estimate D2E/DX2                !
 ! D400  D(17,24,30,31)       -116.5583         estimate D2E/DX2                !
 ! D401  D(25,24,30,29)       -164.2375         estimate D2E/DX2                !
 ! D402  D(25,24,30,31)          6.4156         estimate D2E/DX2                !
 ! D403  D(26,24,30,29)          7.9963         estimate D2E/DX2                !
 ! D404  D(26,24,30,31)        178.6493         estimate D2E/DX2                !
 ! D405  D(33,24,30,29)        150.8382         estimate D2E/DX2                !
 ! D406  D(33,24,30,31)        -38.5088         estimate D2E/DX2                !
 ! D407  D(36,24,30,29)        145.8949         estimate D2E/DX2                !
 ! D408  D(36,24,30,31)        -43.4521         estimate D2E/DX2                !
 ! D409  D(10,24,33,34)       -101.9619         estimate D2E/DX2                !
 ! D410  D(10,24,33,35)         68.0413         estimate D2E/DX2                !
 ! D411  D(17,24,33,34)        179.019          estimate D2E/DX2                !
 ! D412  D(17,24,33,35)        -10.9778         estimate D2E/DX2                !
 ! D413  D(26,24,33,34)        110.8081         estimate D2E/DX2                !
 ! D414  D(26,24,33,35)        -79.1887         estimate D2E/DX2                !
 ! D415  D(28,24,33,34)         -3.8078         estimate D2E/DX2                !
 ! D416  D(28,24,33,35)        166.1954         estimate D2E/DX2                !
 ! D417  D(30,24,33,34)         39.9914         estimate D2E/DX2                !
 ! D418  D(30,24,33,35)       -150.0054         estimate D2E/DX2                !
 ! D419  D(10,24,36,13)         29.4797         estimate D2E/DX2                !
 ! D420  D(10,24,36,35)       -172.784          estimate D2E/DX2                !
 ! D421  D(10,24,36,37)        -17.4922         estimate D2E/DX2                !
 ! D422  D(10,24,36,38)        113.8492         estimate D2E/DX2                !
 ! D423  D(10,24,36,39)         32.1928         estimate D2E/DX2                !
 ! D424  D(26,24,36,13)        -44.5784         estimate D2E/DX2                !
 ! D425  D(26,24,36,35)        113.1579         estimate D2E/DX2                !
 ! D426  D(26,24,36,37)        -91.5503         estimate D2E/DX2                !
 ! D427  D(26,24,36,38)         39.7912         estimate D2E/DX2                !
 ! D428  D(26,24,36,39)        -41.8653         estimate D2E/DX2                !
 ! D429  D(28,24,36,13)         97.302          estimate D2E/DX2                !
 ! D430  D(28,24,36,35)       -104.9617         estimate D2E/DX2                !
 ! D431  D(28,24,36,37)         50.3301         estimate D2E/DX2                !
 ! D432  D(28,24,36,38)       -178.3285         estimate D2E/DX2                !
 ! D433  D(28,24,36,39)        100.0151         estimate D2E/DX2                !
 ! D434  D(30,24,36,13)       -173.5538         estimate D2E/DX2                !
 ! D435  D(30,24,36,35)        -15.8175         estimate D2E/DX2                !
 ! D436  D(30,24,36,37)        139.4743         estimate D2E/DX2                !
 ! D437  D(30,24,36,38)        -89.1843         estimate D2E/DX2                !
 ! D438  D(30,24,36,39)       -170.8407         estimate D2E/DX2                !
 ! D439  D(32,24,36,13)       -137.7714         estimate D2E/DX2                !
 ! D440  D(32,24,36,35)         19.9649         estimate D2E/DX2                !
 ! D441  D(32,24,36,37)        175.2567         estimate D2E/DX2                !
 ! D442  D(32,24,36,38)        -53.4019         estimate D2E/DX2                !
 ! D443  D(32,24,36,39)       -135.0583         estimate D2E/DX2                !
 ! D444  D(24,25,33,36)        -81.8            estimate D2E/DX2                !
 ! D445  D(24,26,27,11)        -86.1353         estimate D2E/DX2                !
 ! D446  D(24,26,27,12)       -139.7906         estimate D2E/DX2                !
 ! D447  D(24,26,27,15)        167.6146         estimate D2E/DX2                !
 ! D448  D(24,26,27,28)         -1.9755         estimate D2E/DX2                !
 ! D449  D(24,26,27,29)         85.362          estimate D2E/DX2                !
 ! D450  D(9,27,28,24)          60.1021         estimate D2E/DX2                !
 ! D451  D(9,27,28,30)         132.6289         estimate D2E/DX2                !
 ! D452  D(11,27,28,24)        109.8794         estimate D2E/DX2                !
 ! D453  D(11,27,28,30)       -177.5937         estimate D2E/DX2                !
 ! D454  D(12,27,28,24)        112.0015         estimate D2E/DX2                !
 ! D455  D(12,27,28,30)       -175.4717         estimate D2E/DX2                !
 ! D456  D(15,27,28,24)       -157.2112         estimate D2E/DX2                !
 ! D457  D(15,27,28,30)        -84.6843         estimate D2E/DX2                !
 ! D458  D(26,27,28,24)          2.1232         estimate D2E/DX2                !
 ! D459  D(26,27,28,30)         74.65           estimate D2E/DX2                !
 ! D460  D(29,27,28,24)        -94.3089         estimate D2E/DX2                !
 ! D461  D(29,27,28,30)        -21.7821         estimate D2E/DX2                !
 ! D462  D(9,27,29,30)         -80.667          estimate D2E/DX2                !
 ! D463  D(11,27,29,30)         85.3278         estimate D2E/DX2                !
 ! D464  D(12,27,29,30)        177.4904         estimate D2E/DX2                !
 ! D465  D(15,27,29,30)        176.7612         estimate D2E/DX2                !
[...]
 01023,0.00735871,-0.01115598,-0.00209069,0.10890296,-0.08405734,0.0046
 7362,-0.00891588,0.00630468,0.00008372,-0.10412960,0.08705640,0.000011
 58,-0.00000438,-0.00003541,0.00000948,0.00001594,-0.00000138,-0.000003
 28,0.00000120,-0.00000031,-0.00000026,-0.00000527,0.00000968,-0.000007
 25,-0.00000086,0.00000471,0.00001826,0.00001128,-0.00000490,0.00000512
 ,0.00000638,-0.00000269,0.00000152,-0.00000213,0.00000168,-0.00004815,
 -0.00003096,0.00002595,0.00002093,-0.00001508,-0.00002853,-0.00000977,
 -0.00002278,-0.00000373,0.00002054,0.00000974,-0.00003553,-0.00000258,
 0.00002176,-0.00001880,-0.00000216,-0.00001310,0.00000313,-0.00002564,
 0.00003889,-0.00000205,0.00000233,-0.00000347,-0.00000098,0.00002832,0
 .00001707,0.00002762,0.00000197,0.00000697,0.00000299,0.00000118,-0.00
 000069,0.00000200,-0.00001354,0.00000116,0.00000162,0.00000445,0.00002
 072,0.00000367,0.00000576,-0.00001303,0.00000456,0.00000337,-0.0000026
 1,0.00000369,-0.00032723,0.00002012,0.00022171,0.00042111,-0.00011197,
 -0.00016596,0.00003096,-0.00002263,-0.00000869,-0.00005776,0.00002089,
 0.00010859,-0.00019532,-0.00014641,0.00014825,0.00015656,-0.00011397,-
 0.00001149,-0.00002075,0.00007652,-0.00056049,-0.00016719,0.00101425,-
 0.00061598,0.00003509,-0.00004990,-0.00009165,0.00010585,-0.00025296,0
 .00053688,0.00022533,0.00025512,-0.00056679,-0.00024414,-0.00001728,0.
 00003001,0.00020307,0.00022690,-0.00009089,-0.00001616,-0.00001597,-0.
 00001408,-0.00000200,-0.00003407,0.00006072,-0.00003529,0.00000615,-0.
 00000441,0.00000276,-0.00000283,0.00000210,-0.00000080,-0.00000261,0.0
 0000124,0.00001038,0.00000423,-0.00000317,-0.00000613,-0.00000441,-0.0
 0000148,-0.00000885,-0.00000415,-0.00000236,0.00166033,-0.00407336,0.0
 0132341,-0.00599822,0.01593111,-0.01611139,0.01878620,-0.01036214,-0.0
 0279963,-0.01448514,-0.00256699,0.01896442,-0.00012112,0.00005822,0.00
 004079,-0.00003433,-0.00003665,0.00000225,0.00002624,0.00003476,-0.000
 05176,0.00003771,-0.00000214,-0.00002935,-0.00000387,0.00002357,0.0000
 1714,-0.00005519,-0.00010826,0.00017917,0.00000558,0.00006347,-0.00003
 492,-0.00003811,-0.00003354,0.00003449,0.00024095,0.00010178,0.0001135
 2,0.00013532,0.00005988,-0.00010816,0.00001032,-0.00001812,-0.00000148
 ,-0.00005317,-0.00009132,-0.00007704,0.00003268,0.00024698,-0.00017060
 ,-0.00000973,0.00004062,-0.00005081,-0.00005297,0.00024704,-0.00006518
 ,0.00001892,-0.00001807,0.00001160,0.00006253,-0.00003876,0.00014244,0
 .00011707,0.00000366,-0.00000157,-0.00002823,-0.00000411,-0.00005887,-
 0.00000042,0.00004215,-0.00001973,0.00015464,-0.00027847,0.00005570,-0
 .00010487,0.00022796,-0.00007571,-0.00003664,0.00001917,-0.00003851,0.
 00008163,0.00001880,0.00013246,-0.00009378,0.00011163,-0.00029464,-0.0
 0010999,0.00005383,0.00004991,0.00009986,-0.00058096,0.00017198,-0.000
 28006,0.00008032,0.00019486,-0.00006511,0.00000145,-0.00024544,-0.0007
 0794,0.00048987,-0.00105424,0.00407725,0.00140710,0.00153956,0.0006272
 5,-0.00036498,0.00086405,-0.00038759,0.00039164,-0.00005569,-0.0010993
 7,0.00041657,0.00016383,0.00019006,-0.00040609,0.00028031,0.00017459,0
 .00038443,-0.00022173,-0.00001442,-0.00001496,-0.00002384,0.00004353,-
 0.00011668,0.00000860,-0.00022962,-0.00012450,0.00003062,0.00004027,0.
 00002207,0.00005857,0.00007191,0.00000569,-0.00003360,-0.00021396,-0.0
 0013212,0.00001746,0.00001259,-0.00000425,0.00003299,0.00020843,0.0001
 0275,0.00004853,-0.02653774,-0.01109994,0.01911869,-0.00083283,-0.0020
 4182,-0.00120389,0.00026074,0.00097374,0.00062177,0.00056539,0.0006352
 2,-0.00019244,0.28676967,-0.00001354,0.00001709,0.00017478,-0.00001536
 ,-0.00004947,0.00002058,0.00002258,-0.00000985,-0.00001450,0.00000475,
 0.00000037,-0.00001229,0.00002900,0.00002051,-0.00001908,-0.00007400,-
 0.00001389,-0.00000962,-0.00001986,-0.00001202,0.00001660,-0.00000481,
 0.00000816,-0.00002749,0.00023440,0.00012219,-0.00004802,-0.00002912,-
 0.00001029,0.00006916,0.00008388,0.00013713,0.00007740,-0.00016141,-0.
 00022508,0.00012960,-0.00003163,-0.00006587,0.00011445,0.00000408,0.00
 001543,0.00000273,-0.00012513,-0.00017121,-0.00010855,-0.00000029,-0.0
 0000330,-0.00000854,-0.00008870,-0.00007511,-0.00009291,0.00000503,-0.
 00000739,-0.00000573,-0.00000467,-0.00000255,-0.00001507,0.00004198,0.
 00000005,-0.00000745,-0.00001332,-0.00007631,0.00000352,-0.00002431,0.
 00005518,-0.00001720,-0.00001793,0.00000871,-0.00001454,-0.00053275,-0
 .00027263,0.00038629,0.00007576,-0.00000083,0.00052884,0.00004827,-0.0
 0006819,0.00000340,-0.00006436,0.00090900,-0.00060341,0.00014745,-0.00
 012557,-0.00037091,0.00015868,-0.00002421,0.00015168,-0.00020636,-0.00
 048582,0.00010634,-0.00135232,0.00113470,-0.00293394,-0.00074703,-0.00
 006253,-0.00009373,0.00075519,-0.00056655,-0.00128072,-0.00003308,0.00
 270577,-0.00144131,0.00051035,0.00022598,-0.00034291,0.00062841,-0.000
 57139,0.00005075,-0.00003797,0.00008042,0.00010048,-0.00015586,0.00008
 274,0.00004542,-0.00000790,0.00010396,-0.00008025,-0.00000446,-0.00000
 367,0.00001320,-0.00000241,-0.00000479,0.00000502,-0.00005660,0.000003
 68,-0.00000325,0.00002118,0.00000809,0.00000428,0.00003874,0.00001868,
 0.00001000,-0.00256904,-0.02769804,0.00861305,-0.00489460,-0.00123554,
 0.00906968,-0.00041116,-0.00134153,-0.00195564,0.00052859,0.00087343,0
 .00032498,0.00416198,0.26599785,0.00005134,-0.00006624,-0.00024621,0.0
 0004294,0.00008109,-0.00002998,-0.00005175,0.00000866,0.00004804,-0.00
 002299,0.00000155,0.00002318,-0.00003498,-0.00004772,0.00001978,0.0001
 6445,0.00004235,-0.00003621,0.00001335,0.00001023,-0.00005743,0.000015
 69,0.00001095,0.00000594,-0.00045534,-0.00022380,-0.00004824,-0.000031
 90,0.00002117,0.00012456,-0.00009603,-0.00012952,-0.00007600,0.0002203
 5,0.00037049,-0.00004482,-0.00005189,0.00006408,0.00000451,-0.00000742
 ,-0.00004861,0.00002647,0.00020526,-0.00008240,0.00022956,0.00001784,-
 0.00001499,0.00000118,0.00008820,-0.00012487,-0.00002383,0.00001692,0.
 00002083,0.00003100,0.00001225,0.00000448,0.00002949,-0.00008876,0.000
 00493,0.00004778,-0.00003778,0.00022655,-0.00002779,0.00007780,-0.0001
 7147,0.00005665,0.00003735,-0.00001854,0.00003250,-0.00048026,0.000339
 43,0.00112619,0.00038529,-0.00008493,-0.00070167,0.00019428,-0.0000177
 1,-0.00006474,-0.00054226,-0.00006512,0.00059726,-0.00039611,0.0005903
 3,0.00027317,0.00031293,-0.00031425,-0.00012208,0.00201917,-0.00089835
 ,-0.00353252,0.00067143,0.00312724,0.00299579,-0.00087078,-0.00090560,
 0.00076811,-0.00016992,-0.00021615,0.00125411,0.00438375,-0.00281101,0
 .00143833,-0.00092666,-0.00008389,0.00015435,0.00127401,0.00114761,-0.
 00019153,-0.00001880,0.00001988,-0.00013803,-0.00021614,-0.00025242,-0
 .00006590,-0.00028438,0.00000329,0.00026131,-0.00001819,-0.00001549,-0
 .00003169,-0.00002814,0.00000035,0.00000678,0.00015539,0.00006226,-0.0
 0001118,-0.00005266,-0.00002614,-0.00002457,-0.00014006,-0.00006864,-0
 .00003578,0.01382875,0.00699898,-0.05182122,-0.00309862,0.00371126,0.0
 0933512,-0.00048600,-0.00318808,-0.00137316,0.00068217,0.00050685,-0.0
 0055584,0.00017898,0.07247946,0.08484683,0.00006148,-0.00003253,-0.000
 10426,0.00003026,0.00003658,-0.00001325,-0.00002163,-0.00000509,0.0000
 2154,-0.00001853,-0.00000414,0.00002335,-0.00001245,-0.00002194,0.0000
 0496,0.00006569,0.00005133,-0.00006545,0.00000717,-0.00000873,0.000000
 29,0.00002043,0.00000288,-0.00000291,-0.00021756,-0.00011431,-0.000006
 53,-0.00003071,-0.00001918,0.00001665,-0.00003974,-0.00005882,0.000008
 74,0.00008973,0.00013573,-0.00001330,0.00002122,-0.00004250,0.00003152
 ,-0.00000050,-0.00002762,0.00001899,0.00008268,-0.00003784,0.00009331,
 -0.00000047,0.00000342,-0.00000067,0.00002414,0.00001255,0.00000348,-0
 .00002837,0.00001459,0.00001513,0.00000744,0.00000523,0.00002259,-0.00
 003270,-0.00000968,0.00000807,-0.00004531,0.00013727,-0.00001786,0.000
 04881,-0.00010791,0.00003537,0.00002187,-0.00001159,0.00002050,-0.0000
 2682,0.00005832,-0.00021041,0.00009333,-0.00012070,-0.00026244,0.00005
 231,-0.00002165,-0.00001197,-0.00010620,-0.00004669,0.00011720,0.00000
 716,0.00001991,0.00014181,-0.00002967,-0.00002840,-0.00004355,0.000600
 11,-0.00022825,0.00008447,0.00019794,-0.00120053,0.00065966,0.00029541
 ,0.00025179,-0.00041324,-0.00071286,0.00013870,0.00122778,0.00149368,-
 0.00102490,-0.00058561,-0.00022163,0.00006286,-0.00011070,0.00014591,-
 0.00001497,0.00004141,-0.00001506,0.00002643,-0.00002343,-0.00001590,0
 .00002132,0.00002370,0.00003667,-0.00000829,-0.00000236,-0.00001549,-0
 .00001014,-0.00002309,-0.00002587,0.00000280,0.00001117,0.00010060,0.0
 0004531,-0.00001133,-0.00002185,-0.00000814,-0.00001576,-0.00009199,-0
 .00004438,-0.00002369,-0.00838749,0.00097685,0.00545960,-0.00005955,0.
 00035152,-0.00102872,0.00019116,-0.00019049,0.00044395,-0.00015345,-0.
 00035198,0.00014488,-0.17240264,0.10396708,0.02481650,0.16946943,0.000
 00636,-0.00000497,-0.00003339,0.00000329,0.00000843,-0.00000473,-0.000
 00378,-0.00000026,0.00000492,-0.00000663,0.00000242,0.00000345,-0.0000
 0532,-0.00000387,0.00000189,0.00001052,0.00000462,-0.00000968,0.000000
 88,-0.00000387,0.00000027,0.00000382,0.00000067,0.00000326,-0.00004643
 ,-0.00002041,0.00000937,-0.00000950,0.00000688,-0.00000901,-0.00001838
 ,-0.00003491,-0.00001432,0.00003511,0.00004316,-0.00002397,0.00000605,
 -0.00000621,-0.00001833,-0.00000002,-0.00000178,-0.00000142,0.00003174
 ,0.00004160,0.00002853,-0.00000207,0.00000330,0.00000109,0.00000824,0.
 00000883,-0.00000113,-0.00000422,-0.00000019,0.00000040,0.00000198,0.0
 0000024,0.00000430,-0.00000533,-0.00000185,0.00000200,-0.00000621,0.00
 002289,-0.00000119,0.00000820,-0.00001821,0.00000552,0.00000589,-0.000
 00231,0.00000321,0.00024387,0.00005226,-0.00003692,-0.00000820,-0.0000
 2689,-0.00014839,-0.00000965,0.00000857,0.00000194,0.00000191,-0.00022
 929,0.00012289,-0.00004396,0.00005689,0.00005773,-0.00006886,0.0000369
 7,-0.00007125,-0.00003820,0.00001297,-0.00005053,0.00079467,0.00002637
 ,0.00075055,0.00022809,-0.00002733,0.00010608,-0.00007216,0.00030686,0
 .00003016,-0.00029778,-0.00071076,0.00036374,-0.00007200,-0.00004272,0
 .00004722,-0.00021530,0.00010414,0.00002320,0.00001940,-0.00001517,-0.
 00001491,0.00004563,-0.00001443,-0.00001900,0.00002419,-0.00000841,0.0
 0001560,-0.00000084,0.00000078,-0.00000404,-0.00000147,0.00000047,-0.0
 0000090,0.00001593,0.00000344,0.00000081,-0.00000310,-0.00000102,-0.00
 000203,-0.00001294,-0.00000631,-0.00000299,-0.00262923,0.00611681,-0.0
 0072978,0.00005479,0.00029946,-0.00176359,0.00025279,0.00021334,0.0003
 4103,-0.00007929,-0.00032511,0.00013394,0.08153411,-0.09004018,-0.0197
 5282,-0.09690978,0.09915430,0.00000655,0.00000842,0.00006198,-0.000004
 35,-0.00001849,0.00000837,0.00000819,-0.00000370,-0.00000823,0.0000020
 0,-0.00000202,-0.00000021,0.00000841,0.00000912,-0.00000743,-0.0000287
 4,0.00000286,-0.00000885,-0.00000602,-0.00000183,0.00001050,0.00000050
 ,-0.00000117,-0.00000935,0.00009817,0.00004582,-0.00001036,-0.00000998
 ,-0.00001425,0.00000187,0.00002040,0.00004706,0.00002908,-0.00005112,-
 0.00008839,0.00005061,0.00002110,-0.00003203,0.00004081,-0.00000152,-0
 .00000103,0.00000357,-0.00009154,-0.00009116,-0.00005368,-0.00000007,0
 .00000065,-0.00000074,-0.00003206,-0.00000662,-0.00000989,-0.00000156,
 0.00000298,0.00000168,-0.00000478,0.00000130,-0.00000695,0.00001411,-0
 .00000027,-0.00001098,0.00000451,-0.00003183,0.00000485,-0.00001200,0.
 00002550,-0.00000808,-0.00000898,0.00000299,-0.00000536,-0.00020974,-0
 .00015487,-0.00017014,-0.00003108,-0.00002627,0.00024237,0.00001477,-0
 .00001444,0.00001001,0.00015861,0.00031971,-0.00023783,0.00011330,-0.0
 0015416,-0.00011155,-0.00005098,0.00001579,0.00010825,-0.00033850,0.00
 005592,0.00077330,-0.00134514,-0.00076763,-0.00171265,0.00002248,0.000
 16712,-0.00030611,-0.00041313,-0.00024306,0.00005985,0.00066411,0.0002
 3765,-0.00003730,0.00037199,0.00012631,-0.00023723,0.00020541,-0.00043
 537,0.00003801,-0.00002719,0.00004816,0.00006377,-0.00003798,0.0000849
 8,0.00005051,0.00002364,0.00001178,-0.00008387,-0.00000167,-0.00000179
 ,0.00000590,-0.00000126,-0.00000021,0.00000360,-0.00002334,-0.00000156
 ,-0.00000375,0.00000702,0.00000211,0.00000190,0.00001747,0.00000891,0.
 00000345,0.00865353,-0.00045568,-0.00184704,-0.00074460,-0.00046361,0.
 00048225,0.00011685,0.00012212,-0.00038753,0.00008239,0.00027780,0.000
 16278,0.01404135,-0.01384152,-0.00872414,-0.02722664,0.02308808,0.0144
 2919,0.00003061,-0.00001633,0.00003351,0.00000003,0.00000087,0.0000042
 2,-0.00000462,-0.00002101,0.00002293,-0.00001471,0.00000952,-0.0000021
 6,0.00001011,-0.00000490,-0.00001264,-0.00000304,0.00004286,-0.0000794
 3,-0.00001129,-0.00004526,0.00002110,0.00001442,0.00002037,-0.00001664
 ,-0.00001832,0.00000641,-0.00002717,-0.00007782,-0.00001171,0.00003645
 ,0.00002047,0.00001760,-0.00001445,-0.00000711,-0.00000020,0.00001848,
 -0.00002901,-0.00015076,0.00007869,0.00000701,-0.00000417,0.00001633,0
 .00003554,-0.00004398,0.00004071,-0.00001563,0.00001547,-0.00000542,-0
 .00005133,0.00000104,-0.00010463,-0.00005486,-0.00001337,-0.00000889,0
 .00001490,0.00000031,0.00002711,0.00001619,-0.00002141,0.00000908,-0.0
 0007188,0.00010237,-0.00003144,0.00004114,-0.00008818,0.00002951,0.000
 00993,-0.00000479,0.00001288,0.00049185,-0.00002582,0.00023940,0.00006
 297,0.00000647,0.00003188,0.00001778,-0.00001628,0.00000006,-0.0001257
 0,0.00017305,-0.00017385,0.00001419,0.00002863,-0.00009220,0.00010558,
 0.00002444,0.00008596,-0.00072553,-0.00021221,0.00027057,0.00033778,0.
 00102330,-0.00056954,-0.00001985,-0.00022685,0.00020875,0.00074144,0.0
 0037281,-0.00116082,-0.00091142,-0.00025464,0.00078120,-0.00016349,0.0
 0014197,-0.00000016,-0.00045727,0.00001283,0.00014337,0.00006340,-0.00
 001505,0.00001676,0.00003790,0.00002191,-0.00005588,0.00015182,0.00007
 908,0.00001676,-0.00001823,-0.00000772,-0.00003016,-0.00003068,-0.0000
 0339,0.00001136,0.00009119,0.00005809,-0.00000209,0.00000164,0.0000081
 0,-0.00001344,-0.00008987,-0.00004484,-0.00001972,-0.00446448,-0.00666
 553,0.00204852,0.00008828,0.00097841,0.00189027,-0.00017850,-0.0003676
 8,-0.00044384,0.00004330,-0.00039108,-0.00004729,-0.09055144,-0.099767
 42,-0.04125859,0.00956979,0.01723315,0.00602713,0.08607683,0.00000868,
 -0.00000643,-0.00001044,0.00000347,0.00000521,-0.00000185,-0.00000411,
 -0.00000204,0.00000568,-0.00000309,0.00000046,0.00000218,-0.00000120,-
 0.00000341,-0.00000097,0.00001132,0.00001164,-0.00001421,0.00000094,-0
 .00000493,-0.00000191,0.00000552,0.00000283,-0.00000157,-0.00003594,-0
 .00002135,-0.00000414,0.00000169,-0.00000974,0.00001044,-0.00000150,-0
 .00000919,-0.00001289,0.00001423,0.00002360,0.00000327,-0.00000229,-0.
 00001665,0.00002028,0.00000035,-0.00000552,0.00000513,0.00000628,-0.00
 002667,0.00002072,0.00000130,0.00000083,0.00000011,0.00000344,-0.00000
 242,-0.00000254,-0.00000318,0.00000533,0.00000229,0.00000127,0.0000016
 2,0.00000439,-0.00000562,-0.00000226,0.00000233,-0.00001184,0.00002971
 ,-0.00000477,0.00001073,-0.00002346,0.00000775,0.00000401,-0.00000205,
 0.00000371,-0.00005399,-0.00003280,0.00008278,0.00004596,-0.00000378,-
 0.00002828,0.00002074,-0.00000256,-0.00000263,-0.00000738,0.00009225,0
 .00000185,-0.00000921,0.00001052,-0.00005998,0.00005986,-0.00005599,0.
 00009698,-0.00024930,0.00002242,-0.00001331,0.00003153,0.00039447,-0.0
 0065807,0.00003884,-0.00007651,-0.00003694,-0.00007170,-0.00011192,0.0
 0024221,0.00091158,-0.00005253,0.00012976,-0.00009176,0.00003901,-0.00
 007800,0.00013980,0.00003594,0.00001015,-0.00000400,0.00001044,-0.0000
 0468,-0.00001507,-0.00000111,0.00001017,-0.00000267,0.00000547,-0.0000
 0050,-0.00000446,-0.00000195,-0.00000519,-0.00000649,-0.00000040,0.000
 00221,0.00002063,0.00000981,-0.00000146,-0.00000427,-0.00000201,-0.000
 00425,-0.00001956,-0.00000951,-0.00000510,-0.00707902,-0.00253468,0.00
 511461,0.00015936,0.00063057,0.00060100,0.00006588,-0.00008495,-0.0000
 9579,0.00013079,-0.00015835,-0.00026933,-0.07644474,-0.14930532,-0.060
 22552,-0.00561129,-0.01499020,-0.00786021,0.08804549,0.16622856,-0.000
 01128,0.00000997,0.00002139,-0.00000524,-0.00000691,0.00000246,0.00000
 698,-0.00000084,-0.00000668,0.00000461,-0.00000114,-0.00000338,0.00000
 329,0.00000526,0.00000043,-0.00002080,-0.00000749,0.00000965,0.0000008
 4,-0.00000240,0.00001101,-0.00000368,-0.00000207,0.00000346,0.00004814
 ,0.00002409,0.00001638,0.00000809,0.00000407,-0.00003858,0.00001148,0.
 00000818,0.00000976,-0.00002229,-0.00003897,-0.00001920,0.00000518,-0.
 00000639,-0.00002614,0.00000117,0.00000926,-0.00000711,-0.00000793,0.0
 0006866,-0.00003330,-0.00000602,0.00000377,0.00000007,-0.00000464,0.00
 004648,0.00001148,-0.00000959,-0.00000666,-0.00000859,0.00000072,-0.00
 000205,-0.00000186,0.00001258,-0.00000222,-0.00000636,0.00000725,-0.00
 003007,0.00000242,-0.00001016,0.00002294,-0.00000745,-0.00000456,0.000
 00256,-0.00000367,0.00022548,-0.00001564,-0.00027840,-0.00010761,0.000
 03413,0.00005894,-0.00005616,0.00001298,0.00000934,0.00004957,-0.00017
 745,0.00000535,0.00005393,-0.00011306,0.00000801,-0.00004096,0.0000570
 4,-0.00006650,-0.00032252,0.00025457,0.00060903,-0.00058440,-0.0006638
 2,-0.00007356,0.00026751,0.00022757,-0.00011179,0.00020176,0.00015125,
 -0.00028695,-0.00143131,-0.00007217,0.00008912,0.00005831,-0.00005061,
 0.00012396,-0.00051133,-0.00008584,0.00002100,0.00002048,-0.00003592,0
 .00000520,0.00008160,0.00002609,-0.00000869,0.00007420,-0.00000941,-0.
 00002569,0.00000505,0.00000373,0.00000195,0.00000578,0.00000059,-0.000
 00167,-0.00001680,-0.00000996,0.00000508,0.00000819,0.00000496,0.00000
 413,0.00001699,0.00000824,0.00000500,0.00580405,0.00943305,0.00468567,
 0.00163044,-0.00097744,-0.00300509,0.00002959,0.00086423,0.00059558,-0
 .00019152,-0.00039973,0.00008719,-0.03404243,-0.06915310,-0.03575343,-
 0.00327947,-0.00243686,-0.00264920,0.03204745,0.06302451,0.03602025\\0
 .00002191,-0.00001382,-0.00001924,-0.00000415,-0.00000542,0.00000306,-
 0.00000047,0.00000680,-0.00000215,-0.00001579,0.00000036,0.00000220,-0
 .00001123,0.00000130,0.00000161,0.00002451,-0.00001608,-0.00000502,-0.
 00000444,-0.00000323,-0.00000207,-0.00000941,-0.00000803,0.00000353,0.
 00002627,0.00002610,-0.00000869,0.00000032,-0.00000728,0.00000230,-0.0
 0000245,0.00000395,0.00000432,-0.00001028,-0.00000025,0.00001529,-0.00
 001166,0.00001860,0.00000188,0.00000650,-0.00000194,-0.00000626,0.0000
 0194,0.00000092,-0.00000329,-0.00000639,-0.00000011,-0.00001733,0.0000
 0597,0.00001027,-0.00000295,0.00000075,-0.00000239,0.00004040,-0.00000
 221,-0.00000003,0.00000014,-0.00001488,-0.00000483,-0.00001818,0.00000
 051,-0.00000060,0.00000112,-0.00000110,-0.00000144,-0.00000046,0.00000
 034,0.00000604,0.00000284,-0.00002113,-0.00001901,0.00000636,-0.000002
 56,-0.00000117,-0.00000198,0.00000028,0.00000643,0.00000212,-0.0000010
 9,-0.00001262,0.00000863,0.00000383,0.00000493,-0.00001498,0.00000629,
 0.00000881,-0.00000466,0.00000442,-0.00000212,0.00001351,-0.00001330,0
 .00000252,0.00001448,0.00000593,0.00000327,-0.00000228,0.00000903,-0.0
 0001674,0.00001090,-0.00001477,0.00001758,-0.00000216,-0.00000371,-0.0
 0000554,-0.00000140,0.00001296,-0.00000134,-0.00000867,-0.00000529,-0.
 00000434,0.00000193,0.00000040,-0.00000349,-0.00000070,0.00000336,0.00
 002877,-0.00001655,-0.00000899,-0.00000557,0.00001334,0.00000718,-0.00
 000533,-0.00000148,0.00000038,0.00000700,-0.00000409,0.00000824,0.0000
 0328,-0.00000436,0.00000052,-0.00000201,-0.00000036,0.00001879,-0.0000
 1524,0.00000693,-0.00000247,-0.00000403,-0.00000543,0.00000060,0.00000
 054,-0.00000133,0.00000015,0.00000200,0.00000155,-0.00000401,0.0000037
 7,-0.00000195,-0.00000176,-0.00000111,0.00000211,0.00000217,0.00000186
 ,-0.00000251\\\@
 The archive entry for this job was punched.


 Everything starts as somebody's daydream.
                           -- Larry Niven
 Job cpu time:       2 days  6 hours 28 minutes 53.5 seconds.
 Elapsed time:       0 days  1 hours  8 minutes 17.2 seconds.
 File lengths (MBytes):  RWF=   6650 Int=      0 D2E=      0 Chk=     81 Scr=      2
 Normal termination of Gaussian 16 at Tue Dec 27 00:49:04 2022.
