 Entering Gaussian System, Link 0=g16
 Initial command:
 /home/chesagar/softwares/G16_AVX2//g16/l1.exe "/home/chesagar/scratch/Gau-93417.inp" -scrdir="/home/chesagar/scratch/"
 Entering Link 1 = /home/chesagar/softwares/G16_AVX2//g16/l1.exe PID=     93419.
  
 Copyright (c) 1988-2019, Gaussian, Inc.  All Rights Reserved.
  
 This is part of the Gaussian(R) 16 program.  It is based on
 the Gaussian(R) 09 system (copyright 2009, Gaussian, Inc.),
 the Gaussian(R) 03 system (copyright 2003, Gaussian, Inc.),
 the Gaussian(R) 98 system (copyright 1998, Gaussian, Inc.),
 the Gaussian(R) 94 system (copyright 1995, Gaussian, Inc.),
 the Gaussian 92(TM) system (copyright 1992, Gaussian, Inc.),
 the Gaussian 90(TM) system (copyright 1990, Gaussian, Inc.),
 the Gaussian 88(TM) system (copyright 1988, Gaussian, Inc.),
 the Gaussian 86(TM) system (copyright 1986, Carnegie Mellon
 University), and the Gaussian 82(TM) system (copyright 1983,
 Carnegie Mellon University). Gaussian is a federally registered
 trademark of Gaussian, Inc.
  
 This software contains proprietary and confidential information,
 including trade secrets, belonging to Gaussian, Inc.
  
 This software is provided under written license and may be
 used, copied, transmitted, or stored only in accord with that
 written license.
  
 The following legend is applicable only to US Government
 contracts under FAR:
  
                    RESTRICTED RIGHTS LEGEND
  
 Use, reproduction and disclosure by the US Government is
 subject to restrictions as set forth in subparagraphs (a)
 and (c) of the Commercial Computer Software - Restricted
 Rights clause in FAR 52.227-19.
  
 Gaussian, Inc.
 340 Quinnipiac St., Bldg. 40, Wallingford CT 06492
  
  
 ---------------------------------------------------------------
 Warning -- This program may not be used in any manner that
 competes with the business of Gaussian, Inc. or will provide
 assistance to any competitor of Gaussian, Inc.  The licensee
 of this program is prohibited from giving any competitor of
 Gaussian, Inc. access to this program.  By using this program,
 the user acknowledges that Gaussian, Inc. is engaged in the
 business of creating and licensing software in the field of
 computational chemistry and represents and warrants to the
 licensee that it is not a competitor of Gaussian, Inc. and that
 it will not use this program in any manner prohibited above.
 ---------------------------------------------------------------
  

 Cite this work as:
 Gaussian 16, Revision C.01,
 M. J. Frisch, G. W. Trucks, H. B. Schlegel, G. E. Scuseria, 
 M. A. Robb, J. R. Cheeseman, G. Scalmani, V. Barone, 
 G. A. Petersson, H. Nakatsuji, X. Li, M. Caricato, A. V. Marenich, 
 J. Bloino, B. G. Janesko, R. Gomperts, B. Mennucci, H. P. Hratchian, 
 J. V. Ortiz, A. F. Izmaylov, J. L. Sonnenberg, D. Williams-Young, 
 F. Ding, F. Lipparini, F. Egidi, J. Goings, B. Peng, A. Petrone, 
 T. Henderson, D. Ranasinghe, V. G. Zakrzewski, J. Gao, N. Rega, 
 G. Zheng, W. Liang, M. Hada, M. Ehara, K. Toyota, R. Fukuda, 
 J. Hasegawa, M. Ishida, T. Nakajima, Y. Honda, O. Kitao, H. Nakai, 
 T. Vreven, K. Throssell, J. A. Montgomery, Jr., J. E. Peralta, 
 F. Ogliaro, M. J. Bearpark, J. J. Heyd, E. N. Brothers, K. N. Kudin, 
 V. N. Staroverov, T. A. Keith, R. Kobayashi, J. Normand, 
 K. Raghavachari, A. P. Rendell, J. C. Burant, S. S. Iyengar, 
 J. Tomasi, M. Cossi, J. M. Millam, M. Klene, C. Adamo, R. Cammi, 
 J. W. Ochterski, R. L. Martin, K. Morokuma, O. Farkas, 
 J. B. Foresman, and D. J. Fox, Gaussian, Inc., Wallingford CT, 2019.
 
 ******************************************
 Gaussian 16:  ES64L-G16RevC.01  3-Jul-2019
                20-Jun-2023 
 ******************************************
 %nprocshared=46
 Will use up to   46 processors via shared memory.
 %mem=100GB
 ---------------------------------------------------------
 # opt freq b3lyp/gen nosymm pseudo=read scf=maxcycles=500
 ---------------------------------------------------------
 1/18=20,19=15,26=3,38=1/1,3;
 2/9=110,12=2,15=1,17=6,18=5,40=1/2;
 3/5=7,11=2,16=1,17=8,25=1,30=1,71=1,74=-5/1,2,3;
 4//1;
 5/5=2,7=500,38=5/2;
 6/7=2,8=2,9=2,10=2,28=1/1;
 7/30=1/1,2,3,16;
 1/18=20,19=15,26=3/3(2);
 2/9=110,15=1/2;
 99//99;
 2/9=110,15=1/2;
 3/5=7,6=1,11=2,16=1,17=8,25=1,30=1,71=1,74=-5,82=7/1,2,3;
 4/5=5,16=3,69=1/1;
 5/5=2,7=500,38=5/2;
 7/30=1/1,2,3,16;
 1/18=20,19=15,26=3/3(-5);
 2/9=110,15=1/2;
 6/7=2,8=2,9=2,10=2,19=2,28=1/1;
 99/9=1/99;
 -------------------
 Title Card Required
 -------------------
 Symbolic Z-matrix:
 Charge =  0 Multiplicity = 1
 42                    0.72708   1.342     12.09552 
 16                    1.53502   3.48022   12.64239 
 16                   -1.53101   1.3806    12.80634 
 16                    0.29639   1.1823    9.72914 
 16                    2.79059   0.02952   11.28729 
 42                   -1.5935    2.27834   10.66703 
 16                   -2.21811   2.19073   8.26701 
 16                   -1.02105   4.42387   10.85546 
 42                    1.26876   3.37626   10.2126 
 16                    0.52706   3.9476    7.8658 
 16                    3.33957   2.54254   9.15432 
 42                    3.35633   2.43949   11.53335 
 42                   -1.85105   4.64137   8.35825 
 16                    4.39328   1.86036   13.8461 
 16                    4.91888   4.20329   11.55205 
 16                   -3.81579   5.68884   9.38332 
 16                   -0.75084   6.87261   8.80142 
 42                   -4.19536   3.3497    8.91479 
 16                   -6.58261   4.01288   9.70112 
 16                   -4.01969   2.22219   10.95664 
 42                    3.0716    0.09722   13.5841 
 16                    3.95031  -1.66759   14.37162 
 16                    1.05959   0.49558   14.46149 
 42                    1.47558   6.24804   7.78403 
 16                    0.73798   6.11244   5.43463 
 16                    1.80652   5.84199   10.28604 
 42                    3.73895   4.91069   9.55343 
 16                    3.50004   4.98533   7.14435 
 16                    5.16162   6.86501   9.77975 
 42                    4.11713   7.147     7.83094 
 16                    5.65757   7.6827    6.12334 
 16                    2.38559   8.70321   8.05512 
 42                    1.31425   8.31872   5.97366 
 16                    2.72807   9.02689   4.33849 
 16                   -0.61694   9.33234   6.11065 
 42                   -1.2704    6.90218   6.5986 
 16                   -2.17449   4.7374    5.97053 
 16                   -3.40847   8.08549   6.74882 
 42                   -3.93827   5.93767   7.04009 
 16                   -5.65939   5.31286   5.39998 
 16                   -6.47732   6.42637   7.00589 
 42                   -6.71952   4.02851   7.49676 
 16                   -5.15603   2.36013   7.02984 
 16                   -8.63618   3.28897   6.97227 
 42                    4.75053   7.96767   4.10501 
 16                    4.19165   5.95328   3.20873 
 1                     5.37645   5.28815   3.19283 
 16                    6.13917   9.09002   2.64542 
 1                     7.16869   9.32453   3.49307 
 

 GradGradGradGradGradGradGradGradGradGradGradGradGradGradGradGradGradGrad
 Berny optimization.
 Initialization pass.
                           ----------------------------
                           !    Initial Parameters    !
                           ! (Angstroms and Degrees)  !
 --------------------------                            --------------------------
 ! Name  Definition              Value          Derivative Info.                !
 --------------------------------------------------------------------------------
 ! R1    R(1,2)                  2.3503         estimate D2E/DX2                !
 ! R2    R(1,3)                  2.3676         estimate D2E/DX2                !
 ! R3    R(1,4)                  2.4106         estimate D2E/DX2                !
 ! R4    R(1,5)                  2.5756         estimate D2E/DX2                !
 ! R5    R(1,6)                  2.8814         estimate D2E/DX2                !
 ! R6    R(1,9)                  2.8244         estimate D2E/DX2                !
 ! R7    R(1,12)                 2.904          estimate D2E/DX2                !
 ! R8    R(1,21)                 3.0434         estimate D2E/DX2                !
 ! R9    R(1,23)                 2.5347         estimate D2E/DX2                !
 ! R10   R(2,9)                  2.4465         estimate D2E/DX2                !
 ! R11   R(2,12)                 2.3728         estimate D2E/DX2                !
 ! R12   R(3,6)                  2.3209         estimate D2E/DX2                !
 ! R13   R(4,6)                  2.3775         estimate D2E/DX2                !
 ! R14   R(4,9)                  2.448          estimate D2E/DX2                !
 ! R15   R(5,12)                 2.4877         estimate D2E/DX2                !
 ! R16   R(5,21)                 2.3149         estimate D2E/DX2                !
 ! R17   R(6,7)                  2.4815         estimate D2E/DX2                !
 ! R18   R(6,8)                  2.2286         estimate D2E/DX2                !
 ! R19   R(6,9)                  3.0991         estimate D2E/DX2                !
 ! R20   R(6,20)                 2.4441         estimate D2E/DX2                !
 ! R21   R(7,13)                 2.4797         estimate D2E/DX2                !
 ! R22   R(7,18)                 2.3817         estimate D2E/DX2                !
 ! R23   R(8,9)                  2.5988         estimate D2E/DX2                !
 ! R24   R(8,13)                 2.6405         estimate D2E/DX2                !
 ! R25   R(9,10)                 2.5267         estimate D2E/DX2                !
 ! R26   R(9,11)                 2.4705         estimate D2E/DX2                !
 ! R27   R(9,12)                 2.6419         estimate D2E/DX2                !
 ! R28   R(9,26)                 2.5248         estimate D2E/DX2                !
 ! R29   R(9,27)                 2.9817         estimate D2E/DX2                !
 ! R30   R(10,13)                2.5257         estimate D2E/DX2                !
 ! R31   R(10,24)                2.4897         estimate D2E/DX2                !
 ! R32   R(11,12)                2.3813         estimate D2E/DX2                !
 ! R33   R(11,27)                2.4345         estimate D2E/DX2                !
 ! R34   R(12,14)                2.5999         estimate D2E/DX2                !
 ! R35   R(12,15)                2.3565         estimate D2E/DX2                !
 ! R36   R(13,16)                2.4512         estimate D2E/DX2                !
 ! R37   R(13,17)                2.5269         estimate D2E/DX2                !
 ! R38   R(13,18)                2.7339         estimate D2E/DX2                !
 ! R39   R(13,36)                2.9231         estimate D2E/DX2                !
 ! R40   R(13,37)                2.4114         estimate D2E/DX2                !
 ! R41   R(13,39)                2.7883         estimate D2E/DX2                !
 ! R42   R(14,21)                2.219          estimate D2E/DX2                !
 ! R43   R(15,27)                2.4263         estimate D2E/DX2                !
 ! R44   R(16,18)                2.4156         estimate D2E/DX2                !
 ! R45   R(16,39)                2.3596         estimate D2E/DX2                !
 ! R46   R(17,24)                2.5263         estimate D2E/DX2                !
 ! R47   R(17,36)                2.2635         estimate D2E/DX2                !
 ! R48   R(18,19)                2.5994         estimate D2E/DX2                !
 ! R49   R(18,20)                2.3391         estimate D2E/DX2                !
 ! R50   R(18,42)                2.9737         estimate D2E/DX2                !
 ! R51   R(18,43)                2.3356         estimate D2E/DX2                !
 ! R52   R(19,42)                2.2087         estimate D2E/DX2                !
 ! R53   R(21,22)                2.1229         estimate D2E/DX2                !
 ! R54   R(21,23)                2.2309         estimate D2E/DX2                !
 ! R55   R(24,25)                2.4662         estimate D2E/DX2                !
 ! R56   R(24,26)                2.5563         estimate D2E/DX2                !
 ! R57   R(24,28)                2.4702         estimate D2E/DX2                !
 ! R58   R(24,30)                2.7907         estimate D2E/DX2                !
 ! R59   R(24,32)                2.6324         estimate D2E/DX2                !
 ! R60   R(24,33)                2.7552         estimate D2E/DX2                !
 ! R61   R(24,36)                3.0616         estimate D2E/DX2                !
 ! R62   R(25,33)                2.3431         estimate D2E/DX2                !
 ! R63   R(25,36)                2.452          estimate D2E/DX2                !
 ! R64   R(26,27)                2.2668         estimate D2E/DX2                !
 ! R65   R(27,28)                2.422          estimate D2E/DX2                !
 ! R66   R(27,29)                2.4279         estimate D2E/DX2                !
 ! R67   R(27,30)                2.848          estimate D2E/DX2                !
 ! R68   R(28,30)                2.3505         estimate D2E/DX2                !
 ! R69   R(29,30)                2.229          estimate D2E/DX2                !
 ! R70   R(30,31)                2.3613         estimate D2E/DX2                !
 ! R71   R(30,32)                2.3389         estimate D2E/DX2                !
 ! R72   R(31,45)                2.231          estimate D2E/DX2                !
 ! R73   R(32,33)                2.3724         estimate D2E/DX2                !
 ! R74   R(33,34)                2.2747         estimate D2E/DX2                !
 ! R75   R(33,35)                2.1853         estimate D2E/DX2                !
 ! R76   R(33,36)                3.0129         estimate D2E/DX2                !
 ! R77   R(34,45)                2.295          estimate D2E/DX2                !
 ! R78   R(35,36)                2.5634         estimate D2E/DX2                !
 ! R79   R(36,37)                2.4286         estimate D2E/DX2                !
 ! R80   R(36,38)                2.4483         estimate D2E/DX2                !
 ! R81   R(36,39)                2.871          estimate D2E/DX2                !
 ! R82   R(37,39)                2.3865         estimate D2E/DX2                !
 ! R83   R(38,39)                2.2313         estimate D2E/DX2                !
 ! R84   R(39,40)                2.4582         estimate D2E/DX2                !
 ! R85   R(39,41)                2.5859         estimate D2E/DX2                !
 ! R86   R(40,41)                2.1185         estimate D2E/DX2                !
 ! R87   R(40,42)                2.6777         estimate D2E/DX2                !
 ! R88   R(41,42)                2.4595         estimate D2E/DX2                !
 ! R89   R(42,43)                2.3337         estimate D2E/DX2                !
 ! R90   R(42,44)                2.1203         estimate D2E/DX2                !
 ! R91   R(45,46)                2.2745         estimate D2E/DX2                !
 ! R92   R(45,48)                2.3062         estimate D2E/DX2                !
 ! R93   R(46,47)                1.3588         estimate D2E/DX2                !
 ! R94   R(48,49)                1.354          estimate D2E/DX2                !
 ! A1    A(2,1,3)              104.0737         estimate D2E/DX2                !
 ! A2    A(2,1,4)              110.494          estimate D2E/DX2                !
 ! A3    A(2,1,5)              105.1412         estimate D2E/DX2                !
 ! A4    A(2,1,6)               95.5416         estimate D2E/DX2                !
 ! A5    A(2,1,21)              89.6261         estimate D2E/DX2                !
 ! A6    A(2,1,23)              92.3791         estimate D2E/DX2                !
 ! A7    A(3,1,4)               97.2037         estimate D2E/DX2                !
 ! A8    A(3,1,5)              150.0674         estimate D2E/DX2                !
 ! A9    A(3,1,9)              111.7972         estimate D2E/DX2                !
 ! A10   A(3,1,12)             156.2683         estimate D2E/DX2                !
 ! A11   A(3,1,21)             126.4806         estimate D2E/DX2                !
 ! A12   A(3,1,23)              81.3918         estimate D2E/DX2                !
 ! A13   A(4,1,5)               78.541          estimate D2E/DX2                !
 ! A14   A(4,1,12)              89.8145         estimate D2E/DX2                !
 ! A15   A(4,1,21)             126.2068         estimate D2E/DX2                !
 ! A16   A(4,1,23)             156.5831         estimate D2E/DX2                !
 ! A17   A(5,1,6)              130.9388         estimate D2E/DX2                !
 ! A18   A(5,1,9)               90.2386         estimate D2E/DX2                !
 ! A19   A(5,1,23)              91.0113         estimate D2E/DX2                !
 ! A20   A(6,1,12)             120.6889         estimate D2E/DX2                !
 ! A21   A(6,1,23)             132.6038         estimate D2E/DX2                !
 ! A22   A(9,1,21)             118.2244         estimate D2E/DX2                !
 ! A23   A(9,1,23)             146.8919         estimate D2E/DX2                !
 ! A24   A(12,1,21)             63.3708         estimate D2E/DX2                !
 ! A25   A(12,1,23)            100.8433         estimate D2E/DX2                !
 ! A26   A(12,5,21)             81.137          estimate D2E/DX2                !
 ! A27   A(1,6,7)              132.1231         estimate D2E/DX2                !
 ! A28   A(1,6,8)               93.6731         estimate D2E/DX2                !
 ! A29   A(1,6,20)             137.161          estimate D2E/DX2                !
 ! A30   A(3,6,4)               99.4329         estimate D2E/DX2                !
 ! A31   A(3,6,7)              152.2039         estimate D2E/DX2                !
 ! A32   A(3,6,8)              106.7112         estimate D2E/DX2                !
 ! A33   A(3,6,9)              104.3194         estimate D2E/DX2                !
 ! A34   A(3,6,20)              84.7568         estimate D2E/DX2                !
 ! A35   A(4,6,7)               78.5962         estimate D2E/DX2                !
 ! A36   A(4,6,8)              105.8426         estimate D2E/DX2                !
 ! A37   A(4,6,20)             145.6127         estimate D2E/DX2                !
 ! A38   A(7,6,8)              100.3945         estimate D2E/DX2                !
 ! A39   A(7,6,9)               95.9213         estimate D2E/DX2                !
 ! A40   A(7,6,20)              82.1793         estimate D2E/DX2                !
 ! A41   A(8,6,20)             105.4912         estimate D2E/DX2                !
 ! A42   A(9,6,20)             160.4481         estimate D2E/DX2                !
 ! A43   A(6,7,13)              83.8147         estimate D2E/DX2                !
 ! A44   A(6,7,18)              85.913          estimate D2E/DX2                !
 ! A45   A(6,8,13)              85.3306         estimate D2E/DX2                !
 ! A46   A(9,8,13)              94.3714         estimate D2E/DX2                !
 ! A47   A(1,9,8)               87.5038         estimate D2E/DX2                !
 ! A48   A(1,9,10)             136.5338         estimate D2E/DX2                !
 ! A49   A(1,9,11)             101.7288         estimate D2E/DX2                !
 ! A50   A(1,9,26)             136.4584         estimate D2E/DX2                !
 ! A51   A(1,9,27)             132.6031         estimate D2E/DX2                !
 ! A52   A(2,9,4)              106.1083         estimate D2E/DX2                !
 ! A53   A(2,9,6)               88.2775         estimate D2E/DX2                !
 ! A54   A(2,9,8)               80.3918         estimate D2E/DX2                !
 ! A55   A(2,9,10)             160.8723         estimate D2E/DX2                !
 ! A56   A(2,9,11)             110.399          estimate D2E/DX2                !
 ! A57   A(2,9,26)              84.6311         estimate D2E/DX2                !
 ! A58   A(2,9,27)              96.1729         estimate D2E/DX2                !
 ! A59   A(4,9,8)               93.4484         estimate D2E/DX2                !
 ! A60   A(4,9,10)              84.4119         estimate D2E/DX2                !
 ! A61   A(4,9,11)              86.8987         estimate D2E/DX2                !
 ! A62   A(4,9,12)              95.4405         estimate D2E/DX2                !
 ! A63   A(4,9,26)             164.9324         estimate D2E/DX2                !
 ! A64   A(4,9,27)             138.2975         estimate D2E/DX2                !
 ! A65   A(6,9,10)              86.8577         estimate D2E/DX2                !
 ! A66   A(6,9,11)             135.8416         estimate D2E/DX2                !
 ! A67   A(6,9,12)             122.0636         estimate D2E/DX2                !
 ! A68   A(6,9,26)             122.5772         estimate D2E/DX2                !
 ! A69   A(8,9,10)              83.1053         estimate D2E/DX2                !
 ! A70   A(8,9,12)             135.6823         estimate D2E/DX2                !
 ! A71   A(8,9,26)              77.6893         estimate D2E/DX2                !
 ! A72   A(8,9,27)             125.2515         estimate D2E/DX2                !
 ! A73   A(10,9,11)             85.6697         estimate D2E/DX2                !
 ! A74   A(10,9,12)            140.9377         estimate D2E/DX2                !
 ! A75   A(10,9,26)             82.4553         estimate D2E/DX2                !
 ! A76   A(10,9,27)             85.4971         estimate D2E/DX2                !
 ! A77   A(11,9,26)             99.4105         estimate D2E/DX2                !
 ! A78   A(12,9,26)             99.407          estimate D2E/DX2                !
 ! A79   A(12,9,27)             68.8004         estimate D2E/DX2                !
 ! A80   A(9,10,13)             99.0568         estimate D2E/DX2                !
 ! A81   A(9,10,24)             97.3315         estimate D2E/DX2                !
 ! A82   A(13,10,24)            96.3913         estimate D2E/DX2                !
 ! A83   A(12,11,27)            82.9438         estimate D2E/DX2                !
 ! A84   A(1,12,11)            101.7346         estimate D2E/DX2                !
 ! A85   A(1,12,14)             96.0108         estimate D2E/DX2                !
 ! A86   A(1,12,15)            151.846          estimate D2E/DX2                !
 ! A87   A(2,12,5)             107.2522         estimate D2E/DX2                !
 ! A88   A(2,12,11)            116.2677         estimate D2E/DX2                !
 ! A89   A(2,12,14)             89.3162         estimate D2E/DX2                !
 ! A90   A(2,12,15)            100.1933         estimate D2E/DX2                !
 ! A91   A(5,12,9)              96.5665         estimate D2E/DX2                !
 ! A92   A(5,12,11)             86.6465         estimate D2E/DX2                !
 ! A93   A(5,12,14)             87.8737         estimate D2E/DX2                !
 ! A94   A(5,12,15)            151.2462         estimate D2E/DX2                !
 ! A95   A(9,12,14)            147.0173         estimate D2E/DX2                !
 ! A96   A(9,12,15)            105.2198         estimate D2E/DX2                !
 ! A97   A(11,12,14)           154.309          estimate D2E/DX2                !
 ! A98   A(11,12,15)            88.8657         estimate D2E/DX2                !
 ! A99   A(14,12,15)            83.9844         estimate D2E/DX2                !
 ! A100  A(7,13,8)              89.9957         estimate D2E/DX2                !
 ! A101  A(7,13,10)             81.9947         estimate D2E/DX2                !
 ! A102  A(7,13,16)            108.6066         estimate D2E/DX2                !
 ! A103  A(7,13,17)            160.6588         estimate D2E/DX2                !
 ! A104  A(7,13,36)            140.4996         estimate D2E/DX2                !
 ! A105  A(7,13,37)             89.0297         estimate D2E/DX2                !
 ! A106  A(7,13,39)            109.3456         estimate D2E/DX2                !
 ! A107  A(8,13,10)             82.2879         estimate D2E/DX2                !
 ! A108  A(8,13,16)             83.7799         estimate D2E/DX2                !
 ! A109  A(8,13,17)             76.7037         estimate D2E/DX2                !
 ! A110  A(8,13,18)             92.1835         estimate D2E/DX2                !
 ! A111  A(8,13,36)            124.7901         estimate D2E/DX2                !
 ! A112  A(8,13,39)            136.1118         estimate D2E/DX2                !
 ! A113  A(10,13,16)           162.4842         estimate D2E/DX2                !
 ! A114  A(10,13,17)            82.3446         estimate D2E/DX2                !
 ! A115  A(10,13,18)           135.8327         estimate D2E/DX2                !
 ! A116  A(10,13,36)            84.724          estimate D2E/DX2                !
 ! A117  A(10,13,37)            86.7995         estimate D2E/DX2                !
 ! A118  A(10,13,39)           137.7616         estimate D2E/DX2                !
 ! A119  A(16,13,17)            84.1641         estimate D2E/DX2                !
 ! A120  A(16,13,36)            94.6147         estimate D2E/DX2                !
 ! A121  A(16,13,37)           106.8314         estimate D2E/DX2                !
 ! A122  A(17,13,18)           139.0119         estimate D2E/DX2                !
 ! A123  A(17,13,37)           101.3551         estimate D2E/DX2                !
 ! A124  A(17,13,39)            89.9039         estimate D2E/DX2                !
 ! A125  A(18,13,36)           131.1702         estimate D2E/DX2                !
 ! A126  A(18,13,37)            96.0485         estimate D2E/DX2                !
 ! A127  A(18,13,39)            70.9732         estimate D2E/DX2                !
 ! A128  A(12,14,21)            80.4683         estimate D2E/DX2                !
 ! A129  A(12,15,27)            83.6398         estimate D2E/DX2                !
 ! A130  A(18,16,39)            84.3384         estimate D2E/DX2                !
 ! A131  A(13,17,24)            95.439          estimate D2E/DX2                !
 ! A132  A(7,18,16)            113.1737         estimate D2E/DX2                !
 ! A133  A(7,18,20)             86.5894         estimate D2E/DX2                !
 ! A134  A(7,18,42)            133.32           estimate D2E/DX2                !
 ! A135  A(7,18,43)             85.1695         estimate D2E/DX2                !
 ! A136  A(13,18,19)           136.7652         estimate D2E/DX2                !
 ! A137  A(13,18,20)           109.9409         estimate D2E/DX2                !
 ! A138  A(13,18,42)           121.5303         estimate D2E/DX2                !
 ! A139  A(13,18,43)           112.8669         estimate D2E/DX2                !
 ! A140  A(16,18,19)            80.7108         estimate D2E/DX2                !
 ! A141  A(16,18,20)           106.5982         estimate D2E/DX2                !
 ! A142  A(16,18,42)            90.2763         estimate D2E/DX2                !
 ! A143  A(16,18,43)           129.1559         estimate D2E/DX2                !
 ! A144  A(19,18,20)            85.8649         estimate D2E/DX2                !
 ! A145  A(19,18,43)            88.538          estimate D2E/DX2                !
 ! A146  A(20,18,42)           126.1601         estimate D2E/DX2                !
 ! A147  A(20,18,43)           122.0834         estimate D2E/DX2                !
 ! A148  A(6,20,18)             87.7099         estimate D2E/DX2                !
 ! A149  A(1,21,14)            101.0464         estimate D2E/DX2                !
 ! A150  A(1,21,22)            147.1741         estimate D2E/DX2                !
 ! A151  A(5,21,14)            102.2794         estimate D2E/DX2                !
 ! A152  A(5,21,22)            113.2031         estimate D2E/DX2                !
 ! A153  A(5,21,23)            106.616          estimate D2E/DX2                !
 ! A154  A(14,21,22)           111.7274         estimate D2E/DX2                !
 ! A155  A(14,21,23)           110.4175         estimate D2E/DX2                !
 ! A156  A(22,21,23)           112.0774         estimate D2E/DX2                !
 ! A157  A(10,24,17)            83.0761         estimate D2E/DX2                !
 ! A158  A(10,24,25)            82.3304         estimate D2E/DX2                !
 ! A159  A(10,24,26)            82.5536         estimate D2E/DX2                !
 ! A160  A(10,24,28)            81.2816         estimate D2E/DX2                !
 ! A161  A(10,24,30)           131.1257         estimate D2E/DX2                !
 ! A162  A(10,24,33)           133.9242         estimate D2E/DX2                !
 ! A163  A(10,24,36)            82.4397         estimate D2E/DX2                !
 ! A164  A(17,24,25)            97.6812         estimate D2E/DX2                !
 ! A165  A(17,24,26)            76.0656         estimate D2E/DX2                !
 ! A166  A(17,24,28)           162.35           estimate D2E/DX2                !
 ! A167  A(17,24,30)           138.3987         estimate D2E/DX2                !
 ! A168  A(17,24,32)            91.8684         estimate D2E/DX2                !
 ! A169  A(17,24,33)            91.559          estimate D2E/DX2                !
 ! A170  A(25,24,26)           164.2407         estimate D2E/DX2                !
 ! A171  A(25,24,28)            88.299          estimate D2E/DX2                !
 ! A172  A(25,24,30)           108.4709         estimate D2E/DX2                !
 ! A173  A(25,24,32)           104.6421         estimate D2E/DX2                !
 ! A174  A(26,24,28)            93.7936         estimate D2E/DX2                !
 ! A175  A(26,24,30)            84.9614         estimate D2E/DX2                !
 ! A176  A(26,24,32)            90.1489         estimate D2E/DX2                !
 ! A177  A(26,24,33)           140.3617         estimate D2E/DX2                !
 ! A178  A(26,24,36)           121.9395         estimate D2E/DX2                !
 ! A179  A(28,24,32)           102.7155         estimate D2E/DX2                !
 ! A180  A(28,24,33)           105.1892         estimate D2E/DX2                !
 ! A181  A(28,24,36)           138.0735         estimate D2E/DX2                !
 ! A182  A(30,24,33)            79.8851         estimate D2E/DX2                !
 ! A183  A(30,24,36)           141.8731         estimate D2E/DX2                !
 ! A184  A(32,24,36)            98.665          estimate D2E/DX2                !
 ! A185  A(9,26,24)             95.6867         estimate D2E/DX2                !
 ! A186  A(24,26,27)            81.9112         estimate D2E/DX2                !
 ! A187  A(9,27,15)             94.0565         estimate D2E/DX2                !
 ! A188  A(9,27,28)             98.8606         estimate D2E/DX2                !
 ! A189  A(9,27,29)            151.5302         estimate D2E/DX2                !
 ! A190  A(9,27,30)            130.3754         estimate D2E/DX2                !
 ! A191  A(11,27,15)            86.0559         estimate D2E/DX2                !
 ! A192  A(11,27,26)           108.2268         estimate D2E/DX2                !
 ! A193  A(11,27,28)            81.4158         estimate D2E/DX2                !
 ! A194  A(11,27,29)           153.433          estimate D2E/DX2                !
 ! A195  A(11,27,30)           133.3495         estimate D2E/DX2                !
 ! A196  A(15,27,26)           105.5534         estimate D2E/DX2                !
 ! A197  A(15,27,28)           151.1944         estimate D2E/DX2                !
 ! A198  A(15,27,29)            82.7001         estimate D2E/DX2                !
 ! A199  A(15,27,30)           131.4943         estimate D2E/DX2                !
 ! A200  A(26,27,28)           102.9859         estimate D2E/DX2                !
 ! A201  A(26,27,29)            97.9727         estimate D2E/DX2                !
 ! A202  A(26,27,30)            89.2014         estimate D2E/DX2                !
 ! A203  A(28,27,29)            97.2217         estimate D2E/DX2                !
 ! A204  A(24,28,27)            80.7365         estimate D2E/DX2                !
 ! A205  A(24,30,27)            68.3791         estimate D2E/DX2                !
 ! A206  A(24,30,29)           114.6765         estimate D2E/DX2                !
 ! A207  A(24,30,31)           132.7199         estimate D2E/DX2                !
 ! A208  A(27,30,31)           134.5983         estimate D2E/DX2                !
 ! A209  A(27,30,32)           111.4807         estimate D2E/DX2                !
 ! A210  A(28,30,29)           105.1921         estimate D2E/DX2                !
 ! A211  A(28,30,31)            99.7101         estimate D2E/DX2                !
 ! A212  A(28,30,32)           116.4584         estimate D2E/DX2                !
 ! A213  A(29,30,31)           110.8096         estimate D2E/DX2                !
 ! A214  A(29,30,32)           110.322          estimate D2E/DX2                !
 ! A215  A(31,30,32)           113.6616         estimate D2E/DX2                !
 ! A216  A(30,31,45)           114.7062         estimate D2E/DX2                !
 ! A217  A(30,32,33)            98.1865         estimate D2E/DX2                !
 ! A218  A(24,33,34)           132.0612         estimate D2E/DX2                !
 ! A219  A(24,33,35)           111.0479         estimate D2E/DX2                !
 ! A220  A(25,33,32)           117.7433         estimate D2E/DX2                !
 ! A221  A(25,33,34)           106.2981         estimate D2E/DX2                !
 ! A222  A(25,33,35)           103.5222         estimate D2E/DX2                !
 ! A223  A(32,33,34)           107.4314         estimate D2E/DX2                !
 ! A224  A(32,33,35)           105.5989         estimate D2E/DX2                !
 ! A225  A(32,33,36)           106.3568         estimate D2E/DX2                !
 ! A226  A(34,33,35)           116.7387         estimate D2E/DX2                !
 ! A227  A(34,33,36)           145.9636         estimate D2E/DX2                !
 ! A228  A(33,34,45)           118.502          estimate D2E/DX2                !
 ! A229  A(13,36,24)            77.2813         estimate D2E/DX2                !
 ! A230  A(13,36,25)           101.4995         estimate D2E/DX2                !
 ! A231  A(13,36,33)           131.2155         estimate D2E/DX2                !
 ! A232  A(13,36,35)           153.9559         estimate D2E/DX2                !
 ! A233  A(13,36,38)            99.4047         estimate D2E/DX2                !
 ! A234  A(17,36,25)           105.6505         estimate D2E/DX2                !
 ! A235  A(17,36,33)            90.6354         estimate D2E/DX2                !
 ! A236  A(17,36,35)            97.9972         estimate D2E/DX2                !
 ! A237  A(17,36,37)           108.9954         estimate D2E/DX2                !
 ! A238  A(17,36,38)            98.4568         estimate D2E/DX2                !
 ! A239  A(17,36,39)            93.3974         estimate D2E/DX2                !
 ! A240  A(24,36,35)            92.7293         estimate D2E/DX2                !
 ! A241  A(24,36,37)           104.0973         estimate D2E/DX2                !
 ! A242  A(24,36,38)           149.6287         estimate D2E/DX2                !
 ! A243  A(24,36,39)           134.5977         estimate D2E/DX2                !
 ! A244  A(25,36,35)            90.354          estimate D2E/DX2                !
 ! A245  A(25,36,37)            83.976          estimate D2E/DX2                !
 ! A246  A(25,36,38)           154.1713         estimate D2E/DX2                !
 ! A247  A(25,36,39)           136.5461         estimate D2E/DX2                !
 ! A248  A(33,36,37)           133.2194         estimate D2E/DX2                !
 ! A249  A(33,36,38)           122.3203         estimate D2E/DX2                !
 ! A250  A(35,36,37)           152.9642         estimate D2E/DX2                !
 ! A251  A(35,36,38)            77.0616         estimate D2E/DX2                !
 ! A252  A(35,36,39)           125.7784         estimate D2E/DX2                !
 ! A253  A(37,36,38)            96.9838         estimate D2E/DX2                !
 ! A254  A(13,39,38)           109.3594         estimate D2E/DX2                !
 ! A255  A(13,39,40)           136.1685         estimate D2E/DX2                !
 ! A256  A(13,39,41)           146.0097         estimate D2E/DX2                !
 ! A257  A(16,39,36)            98.0422         estimate D2E/DX2                !
 ! A258  A(16,39,37)           110.7113         estimate D2E/DX2                !
 ! A259  A(16,39,38)           102.6398         estimate D2E/DX2                !
 ! A260  A(16,39,40)           132.2309         estimate D2E/DX2                !
 ! A261  A(16,39,41)            94.8203         estimate D2E/DX2                !
 ! A262  A(36,39,40)           129.3024         estimate D2E/DX2                !
 ! A263  A(36,39,41)           147.8751         estimate D2E/DX2                !
 ! A264  A(37,39,38)           104.4856         estimate D2E/DX2                !
 ! A265  A(37,39,40)            95.1986         estimate D2E/DX2                !
 ! A266  A(37,39,41)           144.567          estimate D2E/DX2                !
 ! A267  A(38,39,40)           108.8939         estimate D2E/DX2                !
 ! A268  A(38,39,41)            92.837          estimate D2E/DX2                !
 ! A269  A(39,40,42)            82.9149         estimate D2E/DX2                !
 ! A270  A(39,41,42)            84.8251         estimate D2E/DX2                !
 ! A271  A(18,42,40)            98.4436         estimate D2E/DX2                !
 ! A272  A(18,42,41)           103.5403         estimate D2E/DX2                !
 ! A273  A(18,42,44)           143.6727         estimate D2E/DX2                !
 ! A274  A(19,42,40)           139.4982         estimate D2E/DX2                !
 ! A275  A(19,42,41)           101.5359         estimate D2E/DX2                !
 ! A276  A(19,42,43)            98.8066         estimate D2E/DX2                !
 ! A277  A(19,42,44)           107.4851         estimate D2E/DX2                !
 ! A278  A(40,42,43)            85.4682         estimate D2E/DX2                !
 ! A279  A(40,42,44)           109.359          estimate D2E/DX2                !
 ! A280  A(41,42,43)           126.2337         estimate D2E/DX2                !
 ! A281  A(41,42,44)           112.3148         estimate D2E/DX2                !
 ! A282  A(43,42,44)           107.8652         estimate D2E/DX2                !
 ! A283  A(31,45,34)           108.9775         estimate D2E/DX2                !
 ! A284  A(31,45,46)           110.0751         estimate D2E/DX2                !
 ! A285  A(31,45,48)           112.95           estimate D2E/DX2                !
 ! A286  A(34,45,46)           103.433          estimate D2E/DX2                !
 ! A287  A(34,45,48)           111.7414         estimate D2E/DX2                !
 ! A288  A(46,45,48)           109.2426         estimate D2E/DX2                !
 ! A289  A(45,46,47)           102.9369         estimate D2E/DX2                !
 ! A290  A(45,48,49)            98.3895         estimate D2E/DX2                !
 ! A291  L(6,1,21,12,-1)       184.0597         estimate D2E/DX2                !
 ! A292  L(6,9,27,2,-1)        184.4503         estimate D2E/DX2                !
 ! A293  L(8,9,11,1,-1)        189.2326         estimate D2E/DX2                !
 ! A294  L(8,13,37,7,-1)       179.0254         estimate D2E/DX2                !
 ! A295  L(7,18,19,16,-1)      193.8845         estimate D2E/DX2                !
 ! A296  L(10,24,32,17,-1)     174.9444         estimate D2E/DX2                !
 ! A297  L(33,36,39,17,-1)     184.0327         estimate D2E/DX2                !
 ! A298  L(6,1,21,12,-2)       183.763          estimate D2E/DX2                !
 ! A299  L(6,9,27,2,-2)        190.6556         estimate D2E/DX2                !
 ! A300  L(8,9,11,1,-2)        173.3911         estimate D2E/DX2                !
 ! A301  L(8,13,37,7,-2)       190.8836         estimate D2E/DX2                !
 ! A302  L(7,18,19,16,-2)      183.7369         estimate D2E/DX2                !
 ! A303  L(10,24,32,17,-2)     173.6983         estimate D2E/DX2                !
 ! A304  L(33,36,39,17,-2)     171.6755         estimate D2E/DX2                !
 ! D1    D(2,1,6,7)            112.1986         estimate D2E/DX2                !
 ! D2    D(2,1,6,8)              4.6323         estimate D2E/DX2                !
 ! D3    D(2,1,6,20)          -112.9391         estimate D2E/DX2                !
 ! D4    D(5,1,6,7)             -3.3675         estimate D2E/DX2                !
 ! D5    D(5,1,6,8)           -110.9338         estimate D2E/DX2                !
 ! D6    D(5,1,6,20)           131.4949         estimate D2E/DX2                !
 ! D7    D(12,1,6,7)            63.1262         estimate D2E/DX2                !
 ! D8    D(12,1,6,8)           -44.4401         estimate D2E/DX2                !
 ! D9    D(12,1,6,20)         -162.0115         estimate D2E/DX2                !
 ! D10   D(23,1,6,7)          -149.4126         estimate D2E/DX2                !
 ! D11   D(23,1,6,8)           103.0211         estimate D2E/DX2                !
 ! D12   D(23,1,6,20)          -14.5502         estimate D2E/DX2                !
 ! D13   D(3,1,9,8)             12.6846         estimate D2E/DX2                !
 ! D14   D(3,1,9,10)           -64.5676         estimate D2E/DX2                !
 ! D15   D(3,1,9,11)          -160.7065         estimate D2E/DX2                !
 ! D16   D(3,1,9,26)            81.8499         estimate D2E/DX2                !
 ! D17   D(3,1,9,27)           150.8251         estimate D2E/DX2                !
 ! D18   D(5,1,9,8)            171.9153         estimate D2E/DX2                !
 ! D19   D(5,1,9,10)            94.6632         estimate D2E/DX2                !
 ! D20   D(5,1,9,11)            -1.4757         estimate D2E/DX2                !
 ! D21   D(5,1,9,26)          -118.9193         estimate D2E/DX2                !
 ! D22   D(5,1,9,27)           -49.9442         estimate D2E/DX2                !
 ! D23   D(21,1,9,8)          -147.6017         estimate D2E/DX2                !
 ! D24   D(21,1,9,10)          135.1461         estimate D2E/DX2                !
 ! D25   D(21,1,9,11)           39.0072         estimate D2E/DX2                !
 ! D26   D(21,1,9,26)          -78.4364         estimate D2E/DX2                !
 ! D27   D(21,1,9,27)           -9.4612         estimate D2E/DX2                !
 ! D28   D(23,1,9,8)           -95.8668         estimate D2E/DX2                !
 ! D29   D(23,1,9,10)         -173.119          estimate D2E/DX2                !
 ! D30   D(23,1,9,11)           90.7421         estimate D2E/DX2                !
 ! D31   D(23,1,9,26)          -26.7015         estimate D2E/DX2                !
 ! D32   D(23,1,9,27)           42.2737         estimate D2E/DX2                !
 ! D33   D(3,1,12,11)         -105.6553         estimate D2E/DX2                !
 ! D34   D(3,1,12,14)           93.0213         estimate D2E/DX2                !
 ! D35   D(3,1,12,15)            4.5445         estimate D2E/DX2                !
 ! D36   D(4,1,12,11)            2.0558         estimate D2E/DX2                !
 ! D37   D(4,1,12,14)         -159.2676         estimate D2E/DX2                !
 ! D38   D(4,1,12,15)          112.2556         estimate D2E/DX2                !
 ! D39   D(6,1,12,11)          -42.6964         estimate D2E/DX2                !
 ! D40   D(6,1,12,14)          155.9803         estimate D2E/DX2                !
 ! D41   D(6,1,12,15)           67.5034         estimate D2E/DX2                !
 ! D42   D(21,1,12,11)         133.5406         estimate D2E/DX2                !
 ! D43   D(21,1,12,14)         -27.7827         estimate D2E/DX2                !
 ! D44   D(21,1,12,15)        -116.2596         estimate D2E/DX2                !
 ! D45   D(23,1,12,11)         161.0756         estimate D2E/DX2                !
 ! D46   D(23,1,12,14)          -0.2478         estimate D2E/DX2                !
 ! D47   D(23,1,12,15)         -88.7246         estimate D2E/DX2                !
 ! D48   D(2,1,21,14)          -13.625          estimate D2E/DX2                !
 ! D49   D(2,1,21,22)          169.6053         estimate D2E/DX2                !
 ! D50   D(3,1,21,14)         -120.9391         estimate D2E/DX2                !
 ! D51   D(3,1,21,22)           62.2912         estimate D2E/DX2                !
 ! D52   D(4,1,21,14)          101.7874         estimate D2E/DX2                !
 ! D53   D(4,1,21,22)          -74.9823         estimate D2E/DX2                !
 ! D54   D(9,1,21,14)           36.1358         estimate D2E/DX2                !
 ! D55   D(9,1,21,22)         -140.6339         estimate D2E/DX2                !
 ! D56   D(12,1,21,14)          33.5986         estimate D2E/DX2                !
 ! D57   D(12,1,21,22)        -143.1711         estimate D2E/DX2                !
 ! D58   D(1,2,9,12)           -82.0103         estimate D2E/DX2                !
 ! D59   D(1,4,6,9)             73.0516         estimate D2E/DX2                !
 ! D60   D(21,5,12,2)          -69.0303         estimate D2E/DX2                !
 ! D61   D(21,5,12,9)         -127.6198         estimate D2E/DX2                !
 ! D62   D(21,5,12,11)         174.4816         estimate D2E/DX2                !
 ! D63   D(21,5,12,14)          19.5925         estimate D2E/DX2                !
 ! D64   D(21,5,12,15)          92.9934         estimate D2E/DX2                !
 ! D65   D(12,5,21,14)         -23.6909         estimate D2E/DX2                !
 ! D66   D(12,5,21,22)        -144.0556         estimate D2E/DX2                !
 ! D67   D(12,5,21,23)          92.2559         estimate D2E/DX2                !
 ! D68   D(1,6,7,13)          -110.3116         estimate D2E/DX2                !
 ! D69   D(1,6,7,18)          -179.0027         estimate D2E/DX2                !
 ! D70   D(3,6,7,13)           161.5161         estimate D2E/DX2                !
 ! D71   D(3,6,7,18)            92.825          estimate D2E/DX2                !
 ! D72   D(4,6,7,13)          -109.8646         estimate D2E/DX2                !
 ! D73   D(4,6,7,18)          -178.5557         estimate D2E/DX2                !
 ! D74   D(8,6,7,13)            -5.6154         estimate D2E/DX2                !
 ! D75   D(8,6,7,18)           -74.3065         estimate D2E/DX2                !
 ! D76   D(9,6,7,13)           -61.6003         estimate D2E/DX2                !
 ! D77   D(9,6,7,18)          -130.2914         estimate D2E/DX2                !
 ! D78   D(20,6,7,13)           98.7972         estimate D2E/DX2                !
 ! D79   D(20,6,7,18)           30.1061         estimate D2E/DX2                !
 ! D80   D(1,6,8,13)           139.2939         estimate D2E/DX2                !
 ! D81   D(3,6,8,13)          -168.5157         estimate D2E/DX2                !
 ! D82   D(4,6,8,13)            86.2318         estimate D2E/DX2                !
 ! D83   D(7,6,8,13)             5.259          estimate D2E/DX2                !
 ! D84   D(20,6,8,13)          -79.4209         estimate D2E/DX2                !
 ! D85   D(3,6,9,2)            -22.5404         estimate D2E/DX2                !
 ! D86   D(3,6,9,10)           175.9653         estimate D2E/DX2                !
 ! D87   D(3,6,9,11)            95.4673         estimate D2E/DX2                !
 ! D88   D(3,6,9,12)            23.9329         estimate D2E/DX2                !
 ! D89   D(3,6,9,26)          -105.0533         estimate D2E/DX2                !
 ! D90   D(7,6,9,2)            176.6644         estimate D2E/DX2                !
 ! D91   D(7,6,9,10)            15.1701         estimate D2E/DX2                !
 ! D92   D(7,6,9,11)           -65.3279         estimate D2E/DX2                !
 ! D93   D(7,6,9,12)          -136.8623         estimate D2E/DX2                !
 ! D94   D(7,6,9,26)            94.1515         estimate D2E/DX2                !
 ! D95   D(20,6,9,2)            93.3682         estimate D2E/DX2                !
 ! D96   D(20,6,9,10)          -68.1261         estimate D2E/DX2                !
 ! D97   D(20,6,9,11)         -148.624          estimate D2E/DX2                !
 ! D98   D(20,6,9,12)          139.8415         estimate D2E/DX2                !
 ! D99   D(20,6,9,26)           10.8554         estimate D2E/DX2                !
 ! D100  D(1,6,20,18)         -178.6036         estimate D2E/DX2                !
 ! D101  D(3,6,20,18)          173.9412         estimate D2E/DX2                !
 ! D102  D(4,6,20,18)          -87.0075         estimate D2E/DX2                !
 ! D103  D(7,6,20,18)          -30.6536         estimate D2E/DX2                !
 ! D104  D(8,6,20,18)           68.0264         estimate D2E/DX2                !
 ! D105  D(9,6,20,18)           55.0109         estimate D2E/DX2                !
 ! D106  D(6,7,13,8)             4.6592         estimate D2E/DX2                !
 ! D107  D(6,7,13,10)           86.8714         estimate D2E/DX2                !
 ! D108  D(6,7,13,16)          -78.7747         estimate D2E/DX2                !
 ! D109  D(6,7,13,17)           50.6609         estimate D2E/DX2                !
 ! D110  D(6,7,13,36)          158.4148         estimate D2E/DX2                !
 ! D111  D(6,7,13,37)          173.7756         estimate D2E/DX2                !
 ! D112  D(6,7,13,39)         -135.1407         estimate D2E/DX2                !
 ! D113  D(6,7,18,16)           75.2616         estimate D2E/DX2                !
 ! D114  D(6,7,18,20)          -31.3432         estimate D2E/DX2                !
 ! D115  D(6,7,18,42)         -170.4786         estimate D2E/DX2                !
 ! D116  D(6,7,18,43)         -153.9608         estimate D2E/DX2                !
 ! D117  D(13,8,9,1)          -129.4424         estimate D2E/DX2                !
 ! D118  D(13,8,9,2)           178.3296         estimate D2E/DX2                !
 ! D119  D(13,8,9,4)           -75.9043         estimate D2E/DX2                !
 ! D120  D(13,8,9,10)            8.0369         estimate D2E/DX2                !
 ! D121  D(13,8,9,12)         -177.3049         estimate D2E/DX2                !
 ! D122  D(13,8,9,26)           91.7803         estimate D2E/DX2                !
 ! D123  D(13,8,9,27)           87.533          estimate D2E/DX2                !
 ! D124  D(6,8,13,7)            -5.1764         estimate D2E/DX2                !
 ! D125  D(6,8,13,10)          -87.0981         estimate D2E/DX2                !
 ! D126  D(6,8,13,16)          103.545          estimate D2E/DX2                !
 ! D127  D(6,8,13,17)         -171.0058         estimate D2E/DX2                !
 ! D128  D(6,8,13,18)           48.8919         estimate D2E/DX2                !
 ! D129  D(6,8,13,36)         -165.1471         estimate D2E/DX2                !
 ! D130  D(6,8,13,39)          113.363          estimate D2E/DX2                !
 ! D131  D(9,8,13,7)            73.867          estimate D2E/DX2                !
 ! D132  D(9,8,13,10)           -8.0548         estimate D2E/DX2                !
 ! D133  D(9,8,13,16)         -177.4116         estimate D2E/DX2                !
 ! D134  D(9,8,13,17)          -91.9624         estimate D2E/DX2                !
 ! D135  D(9,8,13,18)          127.9353         estimate D2E/DX2                !
 ! D136  D(9,8,13,36)          -86.1038         estimate D2E/DX2                !
 ! D137  D(9,8,13,39)         -167.5937         estimate D2E/DX2                !
 ! D138  D(1,9,10,13)           70.4821         estimate D2E/DX2                !
 ! D139  D(1,9,10,24)          168.1922         estimate D2E/DX2                !
 ! D140  D(2,9,10,13)          -38.9748         estimate D2E/DX2                !
 ! D141  D(2,9,10,24)           58.7353         estimate D2E/DX2                !
 ! D142  D(4,9,10,13)           85.6828         estimate D2E/DX2                !
 ! D143  D(4,9,10,24)         -176.607          estimate D2E/DX2                !
 ! D144  D(6,9,10,13)           36.5381         estimate D2E/DX2                !
 ! D145  D(6,9,10,24)          134.2482         estimate D2E/DX2                !
 ! D146  D(8,9,10,13)           -8.4867         estimate D2E/DX2                !
 ! D147  D(8,9,10,24)           89.2235         estimate D2E/DX2                !
 ! D148  D(11,9,10,13)         172.9828         estimate D2E/DX2                !
 ! D149  D(11,9,10,24)         -89.307          estimate D2E/DX2                !
 ! D150  D(12,9,10,13)         177.4375         estimate D2E/DX2                !
 ! D151  D(12,9,10,24)         -84.8523         estimate D2E/DX2                !
 ! D152  D(26,9,10,13)         -86.9131         estimate D2E/DX2                !
 ! D153  D(26,9,10,24)          10.7971         estimate D2E/DX2                !
 ! D154  D(27,9,10,13)        -134.8351         estimate D2E/DX2                !
 ! D155  D(27,9,10,24)         -37.125          estimate D2E/DX2                !
 ! D156  D(4,9,12,5)             0.4261         estimate D2E/DX2                !
 ! D157  D(4,9,12,14)          -95.8182         estimate D2E/DX2                !
 ! D158  D(4,9,12,15)          161.4896         estimate D2E/DX2                !
 ! D159  D(6,9,12,5)            44.6015         estimate D2E/DX2                !
 ! D160  D(6,9,12,14)          -51.6428         estimate D2E/DX2                !
 ! D161  D(6,9,12,15)         -154.335          estimate D2E/DX2                !
 ! D162  D(8,9,12,5)           101.0302         estimate D2E/DX2                !
 ! D163  D(8,9,12,14)            4.7859         estimate D2E/DX2                !
 ! D164  D(8,9,12,15)          -97.9062         estimate D2E/DX2                !
 ! D165  D(10,9,12,5)          -87.4036         estimate D2E/DX2                !
 ! D166  D(10,9,12,14)         176.3521         estimate D2E/DX2                !
 ! D167  D(10,9,12,15)          73.6599         estimate D2E/DX2                !
 ! D168  D(26,9,12,5)         -176.9989         estimate D2E/DX2                !
 ! D169  D(26,9,12,14)          86.7567         estimate D2E/DX2                !
 ! D170  D(26,9,12,15)         -15.9354         estimate D2E/DX2                !
 ! D171  D(27,9,12,5)         -139.7025         estimate D2E/DX2                !
 ! D172  D(27,9,12,14)         124.0531         estimate D2E/DX2                !
 ! D173  D(27,9,12,15)          21.361          estimate D2E/DX2                !
 ! D174  D(1,9,26,24)         -167.9059         estimate D2E/DX2                !
 ! D175  D(2,9,26,24)         -176.3346         estimate D2E/DX2                !
 ! D176  D(4,9,26,24)          -40.0395         estimate D2E/DX2                !
 ! D177  D(6,9,26,24)          -91.8365         estimate D2E/DX2                !
 ! D178  D(8,9,26,24)          -95.0242         estimate D2E/DX2                !
 ! D179  D(10,9,26,24)         -10.4777         estimate D2E/DX2                !
 ! D180  D(11,9,26,24)          73.8317         estimate D2E/DX2                !
 ! D181  D(12,9,26,24)         130.0539         estimate D2E/DX2                !
 ! D182  D(1,9,27,15)          -13.5591         estimate D2E/DX2                !
 ! D183  D(1,9,27,28)          140.6155         estimate D2E/DX2                !
 ! D184  D(1,9,27,29)          -95.7171         estimate D2E/DX2                !
 ! D185  D(1,9,27,30)         -172.336          estimate D2E/DX2                !
 ! D186  D(2,9,27,15)           29.1371         estimate D2E/DX2                !
 ! D187  D(2,9,27,28)         -176.6883         estimate D2E/DX2                !
 ! D188  D(2,9,27,29)          -53.0208         estimate D2E/DX2                !
 ! D189  D(2,9,27,30)         -129.6397         estimate D2E/DX2                !
 ! D190  D(4,9,27,15)          -93.6058         estimate D2E/DX2                !
 ! D191  D(4,9,27,28)           60.5688         estimate D2E/DX2                !
 ! D192  D(4,9,27,29)         -175.7638         estimate D2E/DX2                !
 ! D193  D(4,9,27,30)          107.6173         estimate D2E/DX2                !
 ! D194  D(8,9,27,15)          111.7173         estimate D2E/DX2                !
 ! D195  D(8,9,27,28)          -94.1081         estimate D2E/DX2                !
 ! D196  D(8,9,27,29)           29.5594         estimate D2E/DX2                !
 ! D197  D(8,9,27,30)          -47.0596         estimate D2E/DX2                !
 ! D198  D(10,9,27,15)        -170.002          estimate D2E/DX2                !
 ! D199  D(10,9,27,28)         -15.8274         estimate D2E/DX2                !
 ! D200  D(10,9,27,29)         107.8401         estimate D2E/DX2                !
 ! D201  D(10,9,27,30)          31.2212         estimate D2E/DX2                !
 ! D202  D(12,9,27,15)         -20.0111         estimate D2E/DX2                !
 ! D203  D(12,9,27,28)         134.1635         estimate D2E/DX2                !
 ! D204  D(12,9,27,29)        -102.169          estimate D2E/DX2                !
 ! D205  D(12,9,27,30)        -178.788          estimate D2E/DX2                !
 ! D206  D(9,10,13,7)          -82.7196         estimate D2E/DX2                !
 ! D207  D(9,10,13,8)            8.3673         estimate D2E/DX2                !
 ! D208  D(9,10,13,16)          45.96           estimate D2E/DX2                !
 ! D209  D(9,10,13,17)          85.8947         estimate D2E/DX2                !
 ! D210  D(9,10,13,18)         -76.8009         estimate D2E/DX2                !
 ! D211  D(9,10,13,36)         134.5765         estimate D2E/DX2                !
 ! D212  D(9,10,13,37)        -172.1888         estimate D2E/DX2                !
 ! D213  D(9,10,13,39)         167.2357         estimate D2E/DX2                !
 ! D214  D(24,10,13,7)         178.7761         estimate D2E/DX2                !
 ! D215  D(24,10,13,8)         -90.1371         estimate D2E/DX2                !
 ! D216  D(24,10,13,16)        -52.5443         estimate D2E/DX2                !
 ! D217  D(24,10,13,17)        -12.6096         estimate D2E/DX2                !
 ! D218  D(24,10,13,18)       -175.3052         estimate D2E/DX2                !
 ! D219  D(24,10,13,36)         36.0721         estimate D2E/DX2                !
 ! D220  D(24,10,13,37)         89.3068         estimate D2E/DX2                !
 ! D221  D(24,10,13,39)         68.7314         estimate D2E/DX2                !
 ! D222  D(9,10,24,17)         -87.4353         estimate D2E/DX2                !
 ! D223  D(9,10,24,25)         173.8096         estimate D2E/DX2                !
 ! D224  D(9,10,24,26)         -10.66           estimate D2E/DX2                !
 ! D225  D(9,10,24,28)          84.3626         estimate D2E/DX2                !
 ! D226  D(9,10,24,30)          65.9423         estimate D2E/DX2                !
 ! D227  D(9,10,24,33)        -172.9094         estimate D2E/DX2                !
 ! D228  D(9,10,24,36)        -134.4085         estimate D2E/DX2                !
 ! D229  D(13,10,24,17)         12.5919         estimate D2E/DX2                !
 ! D230  D(13,10,24,25)        -86.1632         estimate D2E/DX2                !
 ! D231  D(13,10,24,26)         89.3672         estimate D2E/DX2                !
 ! D232  D(13,10,24,28)       -175.6102         estimate D2E/DX2                !
 ! D233  D(13,10,24,30)        165.9695         estimate D2E/DX2                !
 ! D234  D(13,10,24,33)        -72.8821         estimate D2E/DX2                !
 ! D235  D(13,10,24,36)        -34.3813         estimate D2E/DX2                !
 ! D236  D(27,11,12,1)         121.6165         estimate D2E/DX2                !
 ! D237  D(27,11,12,2)          68.7198         estimate D2E/DX2                !
 ! D238  D(27,11,12,5)         176.3203         estimate D2E/DX2                !
 ! D239  D(27,11,12,14)       -105.6577         estimate D2E/DX2                !
 ! D240  D(27,11,12,15)        -32.0939         estimate D2E/DX2                !
 ! D241  D(12,11,27,15)         31.14           estimate D2E/DX2                !
 ! D242  D(12,11,27,26)        -73.9458         estimate D2E/DX2                !
 ! D243  D(12,11,27,28)       -174.8725         estimate D2E/DX2                !
 ! D244  D(12,11,27,29)         96.1372         estimate D2E/DX2                !
 ! D245  D(12,11,27,30)        179.1557         estimate D2E/DX2                !
 ! D246  D(1,12,14,21)          35.413          estimate D2E/DX2                !
 ! D247  D(2,12,14,21)          86.7756         estimate D2E/DX2                !
 ! D248  D(5,12,14,21)         -20.5167         estimate D2E/DX2                !
 ! D249  D(9,12,14,21)          78.2841         estimate D2E/DX2                !
 ! D250  D(11,12,14,21)        -98.2651         estimate D2E/DX2                !
 ! D251  D(15,12,14,21)       -172.9            estimate D2E/DX2                !
 ! D252  D(1,12,15,27)         -81.0473         estimate D2E/DX2                !
 ! D253  D(2,12,15,27)         -84.3358         estimate D2E/DX2                !
 ! D254  D(5,12,15,27)         113.0896         estimate D2E/DX2                !
 ! D255  D(9,12,15,27)         -24.8291         estimate D2E/DX2                !
 ! D256  D(11,12,15,27)         32.1637         estimate D2E/DX2                !
 ! D257  D(14,12,15,27)       -172.5513         estimate D2E/DX2                !
 ! D258  D(7,13,17,24)          48.5774         estimate D2E/DX2                !
 ! D259  D(8,13,17,24)          96.2386         estimate D2E/DX2                !
 ! D260  D(10,13,17,24)         12.4022         estimate D2E/DX2                !
 ! D261  D(16,13,17,24)       -178.796          estimate D2E/DX2                !
 ! D262  D(18,13,17,24)        173.9825         estimate D2E/DX2                !
 ! D263  D(37,13,17,24)        -72.7535         estimate D2E/DX2                !
 ! D264  D(39,13,17,24)       -125.9495         estimate D2E/DX2                !
 ! D265  D(8,13,18,19)          89.6525         estimate D2E/DX2                !
 ! D266  D(8,13,18,20)         -16.2435         estimate D2E/DX2                !
 ! D267  D(8,13,18,42)         147.2895         estimate D2E/DX2                !
 ! D268  D(8,13,18,43)        -156.26           estimate D2E/DX2                !
 ! D269  D(10,13,18,19)        170.8235         estimate D2E/DX2                !
 ! D270  D(10,13,18,20)         64.9275         estimate D2E/DX2                !
 ! D271  D(10,13,18,42)       -131.5395         estimate D2E/DX2                !
 ! D272  D(10,13,18,43)        -75.089          estimate D2E/DX2                !
 ! D273  D(17,13,18,19)         17.5321         estimate D2E/DX2                !
 ! D274  D(17,13,18,20)        -88.364          estimate D2E/DX2                !
 ! D275  D(17,13,18,42)         75.1691         estimate D2E/DX2                !
 ! D276  D(17,13,18,43)        131.6196         estimate D2E/DX2                !
 ! D277  D(36,13,18,19)        -52.7083         estimate D2E/DX2                !
 ! D278  D(36,13,18,20)       -158.6043         estimate D2E/DX2                !
 ! D279  D(36,13,18,42)          4.9288         estimate D2E/DX2                !
 ! D280  D(36,13,18,43)         61.3792         estimate D2E/DX2                !
 ! D281  D(37,13,18,19)        -97.5429         estimate D2E/DX2                !
 ! D282  D(37,13,18,20)        156.5611         estimate D2E/DX2                !
 ! D283  D(37,13,18,42)        -39.9058         estimate D2E/DX2                !
 ! D284  D(37,13,18,43)         16.5446         estimate D2E/DX2                !
 ! D285  D(39,13,18,19)        -48.9162         estimate D2E/DX2                !
 ! D286  D(39,13,18,20)       -154.8122         estimate D2E/DX2                !
 ! D287  D(39,13,18,42)          8.7208         estimate D2E/DX2                !
 ! D288  D(39,13,18,43)         65.1713         estimate D2E/DX2                !
 ! D289  D(7,13,36,24)         -99.8121         estimate D2E/DX2                !
 ! D290  D(7,13,36,25)         -53.7737         estimate D2E/DX2                !
 ! D291  D(7,13,36,33)         -99.0904         estimate D2E/DX2                !
 ! D292  D(7,13,36,35)        -169.2834         estimate D2E/DX2                !
 ! D293  D(7,13,36,38)         110.9681         estimate D2E/DX2                !
 ! D294  D(8,13,36,24)          47.6097         estimate D2E/DX2                !
 ! D295  D(8,13,36,25)          93.6481         estimate D2E/DX2                !
 ! D296  D(8,13,36,33)          48.3314         estimate D2E/DX2                !
 ! D297  D(8,13,36,35)         -21.8616         estimate D2E/DX2                !
 ! D298  D(8,13,36,38)        -101.6101         estimate D2E/DX2                !
 ! D299  D(10,13,36,24)        -29.1959         estimate D2E/DX2                !
 ! D300  D(10,13,36,25)         16.8425         estimate D2E/DX2                !
 ! D301  D(10,13,36,33)        -28.4741         estimate D2E/DX2                !
 ! D302  D(10,13,36,35)        -98.6671         estimate D2E/DX2                !
 ! D303  D(10,13,36,38)       -178.4156         estimate D2E/DX2                !
 ! D304  D(16,13,36,24)        133.2348         estimate D2E/DX2                !
 ! D305  D(16,13,36,25)        179.2732         estimate D2E/DX2                !
 ! D306  D(16,13,36,33)        133.9565         estimate D2E/DX2                !
 ! D307  D(16,13,36,35)         63.7636         estimate D2E/DX2                !
 ! D308  D(16,13,36,38)        -15.9849         estimate D2E/DX2                !
 ! D309  D(18,13,36,24)        179.6161         estimate D2E/DX2                !
 ! D310  D(18,13,36,25)       -134.3456         estimate D2E/DX2                !
 ! D311  D(18,13,36,33)       -179.6622         estimate D2E/DX2                !
 ! D312  D(18,13,36,35)        110.1448         estimate D2E/DX2                !
 ! D313  D(18,13,36,38)         30.3963         estimate D2E/DX2                !
 ! D314  D(7,13,39,38)        -168.3533         estimate D2E/DX2                !
 ! D315  D(7,13,39,40)         -18.8576         estimate D2E/DX2                !
 ! D316  D(7,13,39,41)          63.6992         estimate D2E/DX2                !
 ! D317  D(8,13,39,38)          80.2472         estimate D2E/DX2                !
 ! D318  D(8,13,39,40)        -130.2572         estimate D2E/DX2                !
 ! D319  D(8,13,39,41)         -47.7004         estimate D2E/DX2                !
 ! D320  D(10,13,39,38)        -68.7337         estimate D2E/DX2                !
 ! D321  D(10,13,39,40)         80.7619         estimate D2E/DX2                !
 ! D322  D(10,13,39,41)        163.3187         estimate D2E/DX2                !
 ! D323  D(17,13,39,38)          9.7282         estimate D2E/DX2                !
 ! D324  D(17,13,39,40)        159.2239         estimate D2E/DX2                !
 ! D325  D(17,13,39,41)       -118.2194         estimate D2E/DX2                !
 ! D326  D(18,13,39,38)        152.7676         estimate D2E/DX2                !
 ! D327  D(18,13,39,40)        -57.7368         estimate D2E/DX2                !
 ! D328  D(18,13,39,41)         24.82           estimate D2E/DX2                !
 ! D329  D(12,14,21,1)         -34.075          estimate D2E/DX2                !
 ! D330  D(12,14,21,5)          22.6553         estimate D2E/DX2                !
 ! D331  D(12,14,21,22)        144.0406         estimate D2E/DX2                !
 ! D332  D(12,14,21,23)        -90.5042         estimate D2E/DX2                !
 ! D333  D(12,15,27,9)          21.0947         estimate D2E/DX2                !
 ! D334  D(12,15,27,11)        -31.4557         estimate D2E/DX2                !
 ! D335  D(12,15,27,26)         76.3776         estimate D2E/DX2                !
 ! D336  D(12,15,27,28)        -95.6133         estimate D2E/DX2                !
 ! D337  D(12,15,27,29)        172.6639         estimate D2E/DX2                !
 ! D338  D(12,15,27,30)        179.491          estimate D2E/DX2                !
 ! D339  D(39,16,18,7)          81.3955         estimate D2E/DX2                !
 ! D340  D(39,16,18,19)       -102.3414         estimate D2E/DX2                !
 ! D341  D(39,16,18,20)        174.8393         estimate D2E/DX2                !
 ! D342  D(39,16,18,42)        -57.0529         estimate D2E/DX2                !
 ! D343  D(39,16,18,43)        -21.9275         estimate D2E/DX2                !
 ! D344  D(18,16,39,36)       -117.5214         estimate D2E/DX2                !
 ! D345  D(18,16,39,37)        -62.9764         estimate D2E/DX2                !
 ! D346  D(18,16,39,38)       -174.006          estimate D2E/DX2                !
 ! D347  D(18,16,39,40)         55.32           estimate D2E/DX2                !
 ! D348  D(18,16,39,41)         91.9906         estimate D2E/DX2                !
 ! D349  D(13,17,24,10)        -12.5638         estimate D2E/DX2                !
 ! D350  D(13,17,24,25)         68.6913         estimate D2E/DX2                !
 ! D351  D(13,17,24,26)        -96.5724         estimate D2E/DX2                !
 ! D352  D(13,17,24,28)        -40.28           estimate D2E/DX2                !
 ! D353  D(13,17,24,30)       -162.0068         estimate D2E/DX2                !
 ! D354  D(13,17,24,32)        173.7379         estimate D2E/DX2                !
 ! D355  D(13,17,24,33)        121.5237         estimate D2E/DX2                !
 ! D356  D(7,18,20,6)           31.8173         estimate D2E/DX2                !
 ! D357  D(13,18,20,6)         -21.7226         estimate D2E/DX2                !
 ! D358  D(16,18,20,6)         -81.3611         estimate D2E/DX2                !
 ! D359  D(19,18,20,6)        -160.3834         estimate D2E/DX2                !
 ! D360  D(42,18,20,6)         175.6904         estimate D2E/DX2                !
 ! D361  D(43,18,20,6)         113.9474         estimate D2E/DX2                !
 ! D362  D(7,18,42,40)         -55.3659         estimate D2E/DX2                !
 ! D363  D(7,18,42,41)        -104.5548         estimate D2E/DX2                !
 ! D364  D(7,18,42,44)          84.7713         estimate D2E/DX2                !
 ! D365  D(13,18,42,40)         17.8978         estimate D2E/DX2                !
 ! D366  D(13,18,42,41)        -31.291          estimate D2E/DX2                !
 ! D367  D(13,18,42,44)        158.0351         estimate D2E/DX2                !
 ! D368  D(16,18,42,40)         67.6895         estimate D2E/DX2                !
 ! D369  D(16,18,42,41)         18.5007         estimate D2E/DX2                !
 ! D370  D(16,18,42,44)       -152.1732         estimate D2E/DX2                !
 ! D371  D(20,18,42,40)        178.6265         estimate D2E/DX2                !
 ! D372  D(20,18,42,41)        129.4377         estimate D2E/DX2                !
 ! D373  D(20,18,42,44)        -41.2363         estimate D2E/DX2                !
 ! D374  D(10,24,26,9)          10.6329         estimate D2E/DX2                !
 ! D375  D(10,24,26,27)         86.3526         estimate D2E/DX2                !
 ! D376  D(17,24,26,9)          95.3062         estimate D2E/DX2                !
 ! D377  D(17,24,26,27)        171.0259         estimate D2E/DX2                !
 ! D378  D(25,24,26,9)          27.1539         estimate D2E/DX2                !
 ! D379  D(25,24,26,27)        102.8736         estimate D2E/DX2                !
 ! D380  D(28,24,26,9)         -70.0517         estimate D2E/DX2                !
 ! D381  D(28,24,26,27)          5.668          estimate D2E/DX2                !
 ! D382  D(30,24,26,9)        -122.0083         estimate D2E/DX2                !
 ! D383  D(30,24,26,27)        -46.2886         estimate D2E/DX2                !
 ! D384  D(32,24,26,9)        -172.8057         estimate D2E/DX2                !
 ! D385  D(32,24,26,27)        -97.086          estimate D2E/DX2                !
 ! D386  D(33,24,26,9)         170.4989         estimate D2E/DX2                !
 ! D387  D(33,24,26,27)       -113.7814         estimate D2E/DX2                !
 ! D388  D(36,24,26,9)          86.8738         estimate D2E/DX2                !
 ! D389  D(36,24,26,27)        162.5935         estimate D2E/DX2                !
 ! D390  D(10,24,28,27)        -87.1815         estimate D2E/DX2                !
 ! D391  D(17,24,28,27)        -59.3355         estimate D2E/DX2                !
 ! D392  D(25,24,28,27)       -169.6816         estimate D2E/DX2                !
 ! D393  D(26,24,28,27)         -5.3203         estimate D2E/DX2                !
 ! D394  D(32,24,28,27)         85.69           estimate D2E/DX2                !
 ! D395  D(33,24,28,27)        139.5367         estimate D2E/DX2                !
 ! D396  D(36,24,28,27)       -155.4682         estimate D2E/DX2                !
 ! D397  D(10,24,30,27)        -37.7552         estimate D2E/DX2                !
 ! D398  D(10,24,30,29)        -69.3238         estimate D2E/DX2                !
 ! D399  D(10,24,30,31)         93.6999         estimate D2E/DX2                !
 ! D400  D(17,24,30,27)        100.1779         estimate D2E/DX2                !
 ! D401  D(17,24,30,29)         68.6093         estimate D2E/DX2                !
 ! D402  D(17,24,30,31)       -128.367          estimate D2E/DX2                !
 ! D403  D(25,24,30,27)       -133.7743         estimate D2E/DX2                !
 ! D404  D(25,24,30,29)       -165.343          estimate D2E/DX2                !
 ! D405  D(25,24,30,31)         -2.3193         estimate D2E/DX2                !
 ! D406  D(26,24,30,27)         37.7851         estimate D2E/DX2                !
 ! D407  D(26,24,30,29)          6.2164         estimate D2E/DX2                !
 ! D408  D(26,24,30,31)        169.2401         estimate D2E/DX2                !
 ! D409  D(33,24,30,27)       -178.9884         estimate D2E/DX2                !
 ! D410  D(33,24,30,29)        149.4429         estimate D2E/DX2                !
 ! D411  D(33,24,30,31)        -47.5333         estimate D2E/DX2                !
 ! D412  D(36,24,30,27)        176.1884         estimate D2E/DX2                !
 ! D413  D(36,24,30,29)        144.6198         estimate D2E/DX2                !
 ! D414  D(36,24,30,31)        -52.3565         estimate D2E/DX2                !
 ! D415  D(10,24,33,34)        -98.9673         estimate D2E/DX2                !
 ! D416  D(10,24,33,35)         76.2912         estimate D2E/DX2                !
 ! D417  D(17,24,33,34)        179.1513         estimate D2E/DX2                !
 ! D418  D(17,24,33,35)         -5.5902         estimate D2E/DX2                !
 ! D419  D(26,24,33,34)        109.319          estimate D2E/DX2                !
 ! D420  D(26,24,33,35)        -75.4225         estimate D2E/DX2                !
 ! D421  D(28,24,33,34)         -6.479          estimate D2E/DX2                !
 ! D422  D(28,24,33,35)        168.7795         estimate D2E/DX2                !
 ! D423  D(30,24,33,34)         40.1246         estimate D2E/DX2                !
 ! D424  D(30,24,33,35)       -144.6169         estimate D2E/DX2                !
 ! D425  D(10,24,36,13)         29.8073         estimate D2E/DX2                !
 ! D426  D(10,24,36,35)       -174.5011         estimate D2E/DX2                !
 ! D427  D(10,24,36,37)        -15.8477         estimate D2E/DX2                !
 ! D428  D(10,24,36,38)        116.7222         estimate D2E/DX2                !
 ! D429  D(10,24,36,39)         35.1546         estimate D2E/DX2                !
 ! D430  D(26,24,36,13)        -46.495          estimate D2E/DX2                !
 ! D431  D(26,24,36,35)        109.1966         estimate D2E/DX2                !
 ! D432  D(26,24,36,37)        -92.15           estimate D2E/DX2                !
 ! D433  D(26,24,36,38)         40.4199         estimate D2E/DX2                !
 ! D434  D(26,24,36,39)        -41.1477         estimate D2E/DX2                !
 ! D435  D(28,24,36,13)         97.6824         estimate D2E/DX2                !
 ! D436  D(28,24,36,35)       -106.6261         estimate D2E/DX2                !
 ! D437  D(28,24,36,37)         52.0274         estimate D2E/DX2                !
 ! D438  D(28,24,36,38)       -175.4027         estimate D2E/DX2                !
 ! D439  D(28,24,36,39)        103.0296         estimate D2E/DX2                !
 ! D440  D(30,24,36,13)       -175.2988         estimate D2E/DX2                !
 ! D441  D(30,24,36,35)        -19.6072         estimate D2E/DX2                !
 ! D442  D(30,24,36,37)        139.0463         estimate D2E/DX2                !
 ! D443  D(30,24,36,38)        -88.3839         estimate D2E/DX2                !
 ! D444  D(30,24,36,39)       -169.9515         estimate D2E/DX2                !
 ! D445  D(32,24,36,13)       -142.1248         estimate D2E/DX2                !
 ! D446  D(32,24,36,35)         13.5668         estimate D2E/DX2                !
 ! D447  D(32,24,36,37)        172.2202         estimate D2E/DX2                !
 ! D448  D(32,24,36,38)        -55.2099         estimate D2E/DX2                !
 ! D449  D(32,24,36,39)       -136.7776         estimate D2E/DX2                !
 ! D450  D(24,25,33,36)        -80.4487         estimate D2E/DX2                !
 ! D451  D(24,26,27,11)        -91.0253         estimate D2E/DX2                !
 ! D452  D(24,26,27,15)        178.0302         estimate D2E/DX2                !
 ! D453  D(24,26,27,28)         -5.9204         estimate D2E/DX2                !
 ! D454  D(24,26,27,29)         93.4355         estimate D2E/DX2                !
 ! D455  D(24,26,27,30)         44.8798         estimate D2E/DX2                !
 ! D456  D(9,27,28,24)          62.629          estimate D2E/DX2                !
 ! D457  D(11,27,28,24)        112.9935         estimate D2E/DX2                !
 ! D458  D(15,27,28,24)        178.2289         estimate D2E/DX2                !
 ! D459  D(26,27,28,24)          6.1466         estimate D2E/DX2                !
 ! D460  D(29,27,28,24)        -93.7983         estimate D2E/DX2                !
 ! D461  D(9,27,30,24)          -2.5443         estimate D2E/DX2                !
 ! D462  D(9,27,30,31)        -131.8934         estimate D2E/DX2                !
 ! D463  D(9,27,30,32)          41.697          estimate D2E/DX2                !
 ! D464  D(11,27,30,24)         71.1471         estimate D2E/DX2                !
 ! D465  D(11,27,30,31)        -58.202          estimate D2E/DX2                !
 ! D466  D(11,27,30,32)        115.3885         estimate D2E/DX2                !
 ! D467  D(15,27,30,24)       -153.7225         estimate D2E/DX2                !
 ! D468  D(15,27,30,31)         76.9284         estimate D2E/DX2                !
 ! D469  D(15,27,30,32)       -109.4812         estimate D2E/DX2                !
 ! D470  D(26,27,30,24)        -43.4989         estimate D2E/DX2                !
 ! D471  D(26,27,30,31)       -172.8479         estimate D2E/DX2                !
 ! D472  D(26,27,30,32)          0.7425         estimate D2E/DX2                !
 ! D473  D(24,30,31,45)         15.7295         estimate D2E/DX2                !
 ! D474  D(27,30,31,45)        117.6297         estimate D2E/DX2                !
 ! D475  D(28,30,31,45)         68.7869         estimate D2E/DX2                !
 ! D476  D(29,30,31,45)        179.2407         estimate D2E/DX2                !
 ! D477  D(32,30,31,45)        -55.858          estimate D2E/DX2                !
 ! D478  D(27,30,32,33)       -108.4354         estimate D2E/DX2                !
 ! D479  D(28,30,32,33)        -48.486          estimate D2E/DX2                !
 ! D480  D(29,30,32,33)       -168.2519         estimate D2E/DX2                !
 ! D481  D(31,30,32,33)         66.5859         estimate D2E/DX2                !
 ! D482  D(30,31,45,34)         37.7039         estimate D2E/DX2                !
 ! D483  D(30,31,45,46)        -75.0782         estimate D2E/DX2                !
 ! D484  D(30,31,45,48)        162.5237         estimate D2E/DX2                !
[...]
 .00001080,0.00005980,-0.00000600,-0.00005418,0.00003327,-0.00010289,-0
 .00002922,-0.00003288,0.00008298,-0.00002356,-0.00005012,0.00002085,-0
 .00001299,0.00128607,-0.00022465,-0.00001095,-0.00000698,-0.00005334,0
 .00000917,-0.00015028,-0.00007387,0.00006757,-0.00037807,-0.00035043,0
 .00013268,0.00003738,-0.00055135,-0.00008153,0.00057988,-0.00004272,0.
 00036294,-0.00353403,0.00136110,0.00179808,-0.00181601,0.00465079,-0.0
 1037762,0.00080008,-0.00052249,-0.00042745,-0.00078362,0.00003779,0.00
 083717,0.00643737,-0.00370932,-0.00063642,-0.00031399,0.00014601,-0.00
 023620,-0.00005619,0.00019399,0.00000943,0.,-0.00002012,0.00000857,0.0
 0007326,0.00000718,0.00008952,0.00006804,-0.00002614,-0.00017695,0.000
 00454,0.00000107,0.00001310,0.00000975,-0.00000452,-0.00000933,-0.0000
 8775,-0.00004151,-0.00001799,0.00002306,0.00002084,0.00002409,0.000080
 71,0.00004089,0.00001631,-0.02880195,-0.10691429,-0.03951244,-0.066463
 15,0.16717471,-0.00004039,-0.00000080,0.00032951,-0.00007967,-0.000080
 34,0.00004299,0.00004976,-0.00002491,-0.00002754,0.00007348,-0.0000196
 2,-0.00002017,0.00006504,0.00001902,-0.00002838,-0.00009055,0.00005102
 ,-0.00003912,0.00000142,-0.00002919,0.00002898,0.00000501,0.00001197,-
 0.00000292,0.00030074,0.00030328,-0.00004895,0.00008541,-0.00012402,-0
 .00002484,0.00020931,0.00018848,0.00015213,-0.00018782,-0.00024867,-0.
 00006352,0.00001021,-0.00008530,0.00011794,0.00001573,0.00006995,-0.00
 000651,0.00017223,0.00023219,-0.00001227,-0.00000744,0.00000809,-0.000
 00593,0.00001197,0.00007843,0.00000461,-0.00004171,0.00001682,-0.00001
 200,-0.00000548,0.00000716,0.00000334,0.00006766,-0.00001538,-0.000024
 41,-0.00002631,-0.00008066,-0.00006944,-0.00001290,0.00004337,-0.00001
 050,-0.00004305,0.00002077,-0.00000875,-0.00030403,0.00012681,-0.00073
 773,0.00016464,-0.00017412,-0.00025350,-0.00006405,-0.00011311,0.00004
 343,-0.00099277,-0.00058693,-0.00028513,0.00024158,-0.00037185,0.00003
 445,0.00026524,0.00016965,-0.00027124,0.00015437,-0.00081336,0.0019345
 2,-0.00494502,-0.00421247,-0.00484659,0.00054665,0.00099235,-0.0012616
 0,-0.00111939,-0.00075921,0.00181398,0.00457969,-0.00132897,-0.0010138
 7,-0.00016777,0.00017625,-0.00029957,0.00030229,-0.00021073,0.00011570
 ,-0.00000706,0.00006074,-0.00002616,-0.00009012,0.00000007,0.00006818,
 0.00004531,0.00008086,-0.00011904,-0.00000905,0.00000445,0.00000125,-0
 .00000987,-0.00001118,0.00000053,-0.00003642,-0.00000758,-0.00000439,0
 .00002911,0.00002235,0.00000535,0.00002701,0.00001216,0.00000791,-0.01
 639349,-0.03892220,-0.03307040,0.01710575,0.04290705,0.04099394,0.0000
 0596,-0.00000702,0.00002284,-0.00000134,-0.00000333,0.00000133,0.00000
 356,-0.00000210,-0.00000607,0.00000788,-0.00001423,0.00000767,0.000008
 02,-0.00000237,-0.00000083,0.00000258,0.00001267,-0.00001039,0.0000061
 5,0.00000297,0.00000237,0.00000577,-0.00000014,0.00000149,-0.00001528,
 0.00000537,-0.00000334,0.00002141,-0.00001619,-0.00001405,0.00005070,-
 0.00000468,0.00007785,-0.00001459,-0.00002652,-0.00001644,-0.00000820,
 0.00002242,0.00000480,0.00000203,0.00000477,-0.00000152,0.00005305,0.0
 0006275,0.00002591,0.00000105,0.00000006,-0.00000270,0.00001618,0.0000
 3925,0.00003288,-0.00001461,0.00001152,-0.00000638,0.00000338,-0.00000
 157,0.00000598,0.00000282,-0.00000335,0.00000309,-0.00000709,0.0000058
 3,-0.00000935,0.00000495,-0.00000635,0.00000341,-0.00000312,0.00000091
 ,0.00000285,-0.00029140,-0.00002627,-0.00015171,-0.00007686,0.00006362
 ,0.00007063,0.00001094,-0.00004570,-0.00000276,-0.00035604,0.00001481,
 -0.00000798,-0.00002124,0.00000532,-0.00002157,0.00028338,-0.00011808,
 -0.00011054,0.00067964,-0.00013922,-0.00035250,-0.00059115,0.00098520,
 -0.00062900,0.00006674,0.00021530,-0.00030430,-0.00045540,-0.00071097,
 0.00055830,0.00003719,-0.00039572,-0.00088379,-0.00008083,-0.00008726,
 0.00015600,0.00028734,0.00017592,-0.00007086,0.00001979,-0.00000048,-0
 .00003278,-0.00008191,-0.00005259,0.00003727,-0.00004389,0.00003897,-0
 .00001602,0.00000059,-0.00000058,-0.00000390,-0.00000072,-0.00000918,0
 .00000153,0.00000361,0.00000128,-0.00000450,0.00000076,0.00000108,-0.0
 0000124,-0.00000308,-0.00000160,-0.00000011,0.00626735,0.00296071,0.00
 228144,-0.19863142,0.09717411,-0.00180836,0.19209421,-0.00000172,0.000
 00118,-0.00001973,0.00000605,0.00001148,-0.00000072,0.00000016,0.00000
 919,-0.00001333,0.00001112,-0.00001542,0.00001047,-0.00000153,-0.00000
 432,0.00000444,0.00001798,-0.00001045,0.00002421,0.00001153,0.00002715
 ,-0.00000484,-0.00000407,-0.00000683,0.00000571,-0.00003706,-0.0000289
 6,-0.00000155,0.00002196,0.00000865,-0.00001239,0.00002200,-0.00001240
 ,0.00008793,0.00001126,-0.00001209,-0.00003048,0.00000872,0.00009807,-
 0.00005561,-0.00000182,-0.00000165,-0.00000556,0.00005871,0.00007543,0
 .00001522,0.00000336,-0.00000909,-0.00000074,0.00003704,0.00002029,0.0
 0007567,0.00000602,0.00001028,-0.00000193,-0.00000020,-0.00000393,-0.0
 0000403,-0.00001419,0.00000742,0.00000569,0.00002223,-0.00001912,0.000
 00695,-0.00000692,0.00001805,-0.00000476,-0.00000242,-0.00000025,0.000
 00093,-0.00062027,0.00006515,-0.00016992,0.00027841,0.00021613,-0.0000
 3901,0.00001834,-0.00003896,-0.00002508,-0.00039188,-0.00005408,0.0000
 3639,-0.00012753,0.00008206,0.00026895,0.00020196,-0.00003301,-0.00033
 035,0.00170901,-0.00058905,-0.00106776,-0.00164931,0.00129678,0.001388
 70,-0.00021287,0.00028099,-0.00016315,-0.00040113,-0.00075931,0.000528
 90,-0.00232367,0.00075989,-0.00087290,0.00001158,-0.00018044,0.0003274
 7,0.00043537,0.00030628,-0.00023790,-0.00000400,-0.00001052,-0.0000364
 4,-0.00010737,-0.00007953,0.00007526,-0.00013720,-0.00000306,0.0000021
 3,0.00001053,-0.00000039,0.00000571,0.00001137,-0.00000654,-0.00000030
 ,-0.00002045,-0.00001670,-0.00000225,-0.00000463,-0.00000468,0.0000041
 9,0.00002214,0.00001095,0.00000598,0.00946410,-0.01471906,-0.00552884,
 0.09310113,-0.05841757,-0.00035798,-0.09995931,0.07121339,0.00001670,0
 .00000285,-0.00011350,0.00002389,0.00002110,-0.00001414,-0.00002131,0.
 00001165,0.00000756,-0.00001512,0.00000505,-0.00000026,-0.00002541,-0.
 00001421,0.00001213,0.00004127,-0.00001324,0.00003208,0.00000244,0.000
 01841,-0.00002122,-0.00000762,-0.00000947,0.00000306,-0.00007362,-0.00
 007207,0.00004514,-0.00002809,0.00004287,-0.00000731,-0.00008045,-0.00
 004893,-0.00011647,0.00007646,0.00014169,0.00001903,0.00000323,0.00003
 718,-0.00004340,-0.00001040,-0.00002974,0.00000674,-0.00006323,-0.0001
 3500,0.00002792,0.00000665,-0.00000694,0.00000697,0.00002576,-0.000053
 60,0.00002317,0.00003060,-0.00000150,0.00001464,-0.00000517,0.00000013
 ,-0.00000588,-0.00003207,0.00001176,-0.00000206,0.00003007,0.00002718,
 0.00001729,0.00000154,-0.00001030,0.00000224,0.00000678,-0.00000529,0.
 00000113,0.00016032,0.00005165,0.00033041,-0.00001046,0.00013258,-0.00
 001590,0.00003579,0.00004545,0.00002978,0.00036788,0.00013238,0.000164
 48,-0.00005302,0.00017854,0.00008243,-0.00016260,-0.00014562,0.0002483
 8,-0.00037465,0.00063265,-0.00109724,0.00229157,0.00050288,0.00129763,
 -0.00006053,-0.00067153,0.00075632,0.00043081,0.00038468,-0.00097619,-
 0.00195907,0.00008012,0.00059483,0.00007892,-0.00009558,0.00022196,-0.
 00002196,0.00017941,-0.00012445,0.00000187,-0.00002389,0.00001631,0.00
 002638,-0.00002295,-0.00003307,-0.00004743,-0.00005876,0.00005729,0.00
 000437,-0.00000437,0.00000285,0.00001007,0.00000676,-0.00000332,0.0000
 0482,-0.00000067,-0.00000344,-0.00001330,-0.00000992,0.00000220,-0.000
 00140,0.00000035,-0.00000265,0.00608851,-0.00632263,-0.00104880,-0.003
 77814,0.00082476,-0.00853603,-0.00012127,0.00509335,0.00745599,0.00005
 515,-0.00001265,-0.00010681,0.00003419,0.00003486,-0.00001035,-0.00003
 390,-0.00001529,0.00004255,-0.00003866,0.00001400,-0.00001136,-0.00000
 664,-0.00003249,-0.00000982,0.00005436,0.00004799,-0.00008582,0.000011
 60,-0.00005442,0.00000335,0.00001983,0.00001672,-0.00001139,-0.0001980
 2,-0.00016085,0.00011396,0.00000276,0.00003589,-0.00000265,-0.00001898
 ,-0.00006398,-0.00006387,0.00007692,0.00018150,0.00000721,-0.00010245,
 -0.00008699,0.00005929,0.00000653,-0.00002943,0.00002832,0.00015349,-0
 .00007681,0.00019094,-0.00001144,0.00001678,-0.00002382,0.00000390,-0.
 00003318,-0.00005137,-0.00005067,0.00000568,-0.00002030,0.00003184,0.0
 0000036,0.00005786,-0.00002197,-0.00002929,0.00004984,-0.00010743,0.00
 022035,-0.00004105,0.00008295,-0.00017653,0.00005672,0.00003212,-0.000
 01726,0.00003107,0.00003375,-0.00027814,0.00073291,0.00027230,-0.00006
 419,-0.00044394,0.00000660,-0.00004267,-0.00001794,-0.00028758,0.00035
 020,-0.00028437,-0.00012809,0.00037105,0.00017695,0.00015983,-0.000097
 36,0.00014492,-0.00062737,-0.00053339,-0.00172199,0.00572356,0.0025174
 7,0.00329864,0.00012568,-0.00032799,0.00045819,0.00131012,0.00040553,-
 0.00011263,-0.00292641,-0.00090738,0.00114259,-0.00070492,0.00002065,-
 0.00007317,0.00004552,0.00048581,0.00022346,0.00014249,0.00001829,-0.0
 0008956,-0.00002981,-0.00009693,-0.00008605,0.00007775,0.00013163,0.00
 016312,-0.00002612,-0.00001281,-0.00005043,-0.00004327,-0.00001100,0.0
 0001385,0.00018636,0.00007282,-0.00000254,-0.00001878,0.00000806,-0.00
 002862,-0.00016453,-0.00008271,-0.00003930,-0.05758798,-0.03513205,0.0
 4395220,-0.00234703,-0.00615049,0.00059682,0.00040898,0.00056440,-0.00
 235166,0.20120857,0.00005089,-0.00001855,-0.00000872,0.00001045,0.0000
 1354,0.00000380,-0.00001907,-0.00002649,0.00004064,-0.00002396,0.00001
 111,-0.00001250,0.00000309,-0.00001186,-0.00001501,-0.00000547,0.00004
 279,-0.00008943,0.00000205,-0.00008017,0.00005047,0.00001032,0.0000286
 1,-0.00002611,-0.00011297,-0.00003970,0.00000652,-0.00000061,-0.000008
 62,0.00007565,-0.00000945,0.00000683,-0.00015247,0.00000965,0.00009038
 ,0.00001893,-0.00007323,-0.00020036,0.00002221,0.00000966,-0.00001237,
 0.00002614,0.00003688,-0.00007287,0.00002633,-0.00003362,0.00003090,-0
 .00002479,-0.00005547,0.00002441,-0.00008868,-0.00009420,-0.00003868,-
 0.00006111,0.00004223,-0.00001346,0.00005440,0.00002796,-0.00004284,0.
 00004110,-0.00010705,0.00016992,-0.00004444,0.00006591,-0.00014053,0.0
 0004512,0.00001993,-0.00000980,0.00002152,0.00055808,0.00017003,0.0000
 0230,-0.00014818,0.00012522,0.00041164,-0.00000840,-0.00000810,0.00002
 144,0.00012360,0.00017031,-0.00006267,0.00033339,0.00005480,-0.0003685
 7,0.00000436,0.00009349,0.00038767,-0.00106947,0.00030941,0.00066789,0
 .00199453,-0.00043116,0.00038295,-0.00013207,-0.00006288,0.00016097,0.
 00207411,0.00041973,-0.00219494,-0.00628747,0.00558246,-0.00130152,0.0
 0023071,-0.00002062,0.00030245,-0.00136879,-0.00027838,0.00012253,0.00
 016732,-0.00008344,0.00006019,0.00012667,0.00009431,-0.00016758,0.0003
 3080,0.00020708,0.00008884,-0.00001502,-0.00001077,-0.00005559,-0.0000
 3515,-0.00001069,0.00002212,0.00016557,0.00008210,0.00001398,0.0000068
 3,0.00002087,-0.00002166,-0.00015017,-0.00007690,-0.00003136,-0.031962
 99,-0.04071297,0.03899028,-0.00130703,-0.00229643,0.00455763,-0.000271
 92,0.00029568,-0.00208071,0.06992228,0.04581390,-0.00005929,0.00002323
 ,0.00014698,-0.00004755,-0.00005289,0.00001666,0.00002722,-0.00000266,
 -0.00002416,0.00001045,0.00000986,-0.00001142,0.00002356,0.00002711,-0
 .00000923,-0.00006892,-0.00002043,0.00002080,-0.00004307,0.00000178,-0
 .00001666,-0.00000597,-0.00000840,0.00000884,0.00027204,0.00020065,-0.
 00003817,-0.00015129,0.00005905,-0.00008087,0.00006209,-0.00000113,0.0
 0015778,-0.00004361,-0.00018609,-0.00002963,-0.00001166,-0.00003006,-0
 .00005149,-0.00000089,0.00003763,-0.00002938,-0.00001037,0.00013710,0.
 00003153,0.00000051,0.00000085,0.00001491,-0.00005832,-0.00006727,-0.0
 0010768,0.00006147,-0.00000284,-0.00000632,-0.00002082,0.00000091,-0.0
 0003129,0.00003136,0.00001569,-0.00001618,0.00004231,-0.00015087,0.000
 01360,-0.00005022,0.00011084,-0.00003551,-0.00002464,0.00001436,-0.000
 02117,0.00136324,-0.00046188,0.00066271,-0.00007756,-0.00044901,-0.000
 55628,-0.00008153,-0.00002310,0.00001710,-0.00034543,-0.00042934,-0.00
 031181,-0.00028614,0.00024948,0.00047578,-0.00001098,0.00017357,-0.000
 48376,-0.00156975,-0.00099855,0.00058845,0.00143490,0.00164947,-0.0003
 3361,0.00053496,-0.00069882,0.00072134,-0.00055250,0.00251286,-0.00061
 185,0.00091952,-0.00730926,0.00107927,-0.00017020,-0.00017072,-0.00000
 791,0.00047937,0.00070028,-0.00004719,-0.00001341,0.00002444,0.0000321
 8,-0.00004427,-0.00016242,-0.00001299,-0.00016629,0.00000811,0.0000334
 0,0.00000943,0.00000579,0.00003183,0.00002476,-0.00000027,-0.00001903,
 -0.00011496,-0.00004308,0.00000160,0.00001546,0.00000403,0.00001681,0.
 00009714,0.00004794,0.00002436,0.04390503,0.03597156,-0.06767901,-0.00
 562600,0.00530159,0.00657535,0.00167382,0.00130884,-0.00000922,0.07832
 646,-0.01492416,0.17147338,0.00000191,-0.00000190,0.00005799,-0.000014
 91,-0.00001608,0.00000752,0.00000473,-0.00001101,0.00000458,-0.0000040
 0,0.00000632,-0.00000344,0.00001042,0.00000860,-0.00000839,-0.00002977
 ,0.00001151,-0.00002781,-0.00001858,-0.00002496,0.00001484,0.00000153,
 0.00000590,-0.00000681,0.00008018,0.00007360,-0.00004973,-0.00007815,0
 .00001231,0.00001157,0.00001414,0.00001792,0.00001250,-0.00002480,-0.0
 0005958,0.00001325,0.00000239,-0.00009151,-0.00000029,0.00000310,0.000
 00909,-0.00000013,-0.00002048,-0.00000244,-0.00000915,-0.00001223,0.00
 001082,0.00000058,-0.00005390,-0.00001076,-0.00008062,-0.00001390,-0.0
 0001605,-0.00001865,0.00000346,-0.00000287,0.00000280,0.00002422,-0.00
 000801,0.00000058,-0.00001919,-0.00000591,-0.00000746,0.00000064,-0.00
 000083,0.00000017,-0.00000286,0.00000224,-0.00000127,0.00070217,-0.000
 01447,-0.00001091,-0.00014654,-0.00009999,0.00005309,-0.00001855,0.000
 00049,0.00001548,0.00001502,-0.00006487,-0.00009654,0.00006130,-0.0000
 3608,-0.00005942,-0.00005523,0.00010192,-0.00004358,-0.00089649,-0.000
 14477,0.00124605,0.00002208,-0.00039737,-0.00111558,0.00022220,-0.0001
 2264,0.00013087,0.00001628,0.00085064,-0.00096880,-0.00116317,-0.00144
 269,0.00052454,0.00024163,-0.00001412,0.00006991,-0.00040688,-0.000095
 21,0.00003916,0.00002706,-0.00001257,0.00006612,0.00003558,0.00003059,
 -0.00004716,0.00007910,0.00004496,-0.00000460,-0.00000176,-0.00000204,
 -0.00000597,-0.00000253,-0.00000106,0.00000245,0.00000523,0.00001297,0
 .00000358,0.00000946,0.00000750,0.00000016,-0.00000915,-0.00000524,-0.
 00000087,-0.00674467,-0.00371169,0.00181016,0.00001490,0.00160702,0.00
 135628,0.00034214,-0.00003693,-0.00044871,-0.14478512,-0.03303550,-0.1
 1965947,0.15258200,-0.00000852,0.00000715,-0.00002449,0.00000597,0.000
 00439,-0.00000287,0.00000107,0.00000710,-0.00000785,-0.00000008,-0.000
 00295,0.00000460,-0.00000122,-0.00000405,0.00000259,0.00002016,0.00000
 071,0.00000885,0.00000358,0.00002208,-0.00002114,0.00000566,-0.0000101
 0,0.00001127,-0.00002080,-0.00004438,0.00004863,0.00000741,-0.00000550
 ,-0.00004268,0.00000934,-0.00002774,0.00008189,0.00002141,0.00000221,-
 0.00001863,0.00000528,0.00007177,0.00001378,-0.00000091,-0.00000215,-0
 .00000422,0.00005576,0.00003665,0.00006855,0.00001437,-0.00000881,0.00
 000374,0.00003446,-0.00000322,0.00005151,0.00002549,0.00002836,0.00002
 175,-0.00001005,0.00000805,-0.00000578,-0.00002073,0.00000900,-0.00000
 394,0.00001155,-0.00000630,0.00000739,-0.00000228,0.00000625,-0.000001
 86,0.00000203,-0.00000136,0.00000062,-0.00022851,-0.00018771,0.0002460
 5,0.00028271,-0.00013489,-0.00046842,-0.00001182,-0.00002950,-0.000020
 62,-0.00024191,0.00002895,-0.00013106,-0.00024626,0.00004296,0.0003459
 6,0.00006692,-0.00007809,-0.00020211,0.00046995,-0.00051149,-0.0009299
 9,0.00044197,0.00109334,0.00105487,0.00013341,-0.00003642,-0.00009368,
 -0.00059998,0.00005377,0.00144312,0.00257448,-0.00132878,-0.00046021,-
 0.00057526,0.00002770,-0.00030535,0.00094196,0.00042684,0.00000491,-0.
 00005747,0.00005559,-0.00008178,-0.00008231,-0.00009518,0.00008994,-0.
 00015993,-0.00005271,-0.00000591,-0.00000145,0.00000110,0.00001075,-0.
 00000002,0.00000012,-0.00000537,-0.00001551,-0.00001811,-0.00000853,-0
 .00001148,-0.00000780,-0.00000048,0.00001634,0.00000907,0.00000157,-0.
 00638385,-0.00232853,-0.00123336,-0.00233152,-0.00080835,-0.00158235,0
 .00010188,0.00022292,0.00127151,-0.03091604,-0.00914926,-0.02240379,0.
 03667473,0.01271731,-0.00000021,-0.00000247,-0.00004949,0.00001336,0.0
 0001484,-0.00000663,-0.00000290,0.00001109,-0.00000677,0.00000924,-0.0
 0001114,0.00000807,-0.00000985,-0.00000595,0.00001070,0.00002712,-0.00
 000860,0.00003065,0.00001734,0.00002864,-0.00001076,-0.00000303,-0.000
 00752,0.00000771,-0.00007153,-0.00006360,0.00001617,0.00007829,-0.0000
 2343,-0.00000032,-0.00001267,-0.00000195,-0.00000673,0.00001178,0.0000
 4432,-0.00000475,0.00002762,0.00009012,-0.00000110,-0.00000307,-0.0000
 0800,0.00000005,-0.00000398,-0.00000709,-0.00002257,0.00001056,-0.0000
 1148,0.00000300,0.00005125,0.00003066,0.00008713,0.00000985,0.00001361
 ,0.00001844,-0.00000578,0.00000275,-0.00000740,-0.00002074,0.00000874,
 -0.00000733,0.00002625,-0.00000870,0.00000932,-0.00000609,0.00001243,-
 0.00000364,0.00000012,-0.00000096,-0.00000041,-0.00071667,0.00010959,-
 0.00026540,0.00007747,0.00014386,0.00006609,0.00002587,0.00000849,-0.0
 0000894,0.00005642,0.00010480,0.00016414,0.00001955,-0.00009533,-0.000
 07328,0.00009766,-0.00012921,0.00008140,0.00078782,0.00030505,-0.00031
 368,-0.00129692,-0.00015612,-0.00086190,-0.00016638,0.00027610,-0.0003
 5520,-0.00025580,-0.00108193,0.00096821,0.00148063,0.00178312,-0.00027
 743,-0.00005406,0.00002792,-0.00002512,0.00023900,-0.00010217,-0.00008
 174,-0.00005146,0.00000435,-0.00003756,-0.00001948,0.00001841,0.000065
 43,-0.00005358,-0.00006751,-0.00004051,0.00000479,0.00000233,0.0000093
 7,0.00000635,0.00000303,-0.00000128,-0.00001881,-0.00001548,-0.0000042
 8,-0.00000713,-0.00000868,0.00000249,0.00002079,0.00001115,0.00000346,
 0.00605171,0.00154116,0.00394590,0.00090578,-0.00086266,-0.00114359,-0
 .00037723,-0.00029553,0.00069457,-0.12413036,-0.02489371,-0.11156285,0
 .11723111,0.02327263,0.10898832\\-0.00000683,0.00000273,0.00000168,-0.
 00000081,-0.00000009,0.00000117,0.00000297,-0.00000338,0.00000008,-0.0
 0000455,0.00000042,-0.00000422,0.00000064,-0.00000247,0.00000018,-0.00
 000167,0.00000126,-0.00000855,-0.00000053,0.00000120,-0.00000375,0.000
 00020,0.00000161,0.00000123,0.00000080,0.00000375,0.00000689,-0.000002
 21,-0.00000566,0.00000089,0.00000350,-0.00000216,0.00000073,0.00000278
 ,0.00000104,-0.00000662,-0.00001161,-0.00001555,0.00000056,-0.00000075
 ,-0.00000119,-0.00000214,0.00000036,0.00000340,-0.00000169,0.00000170,
 -0.00000204,0.00000159,-0.00000118,0.00000519,0.00000335,0.00001231,0.
 00000348,-0.00000829,0.00000174,-0.00000014,-0.00000229,-0.00000418,-0
 .00000403,0.00000528,0.00000053,-0.00000281,-0.00000191,-0.00000041,-0
 .00000154,-0.00000135,0.00000223,-0.00000190,-0.00000137,-0.00001952,0
 .00000833,-0.00001633,0.00000545,-0.00000310,0.00000489,0.00000174,-0.
 00000535,0.00000312,-0.00000171,-0.00001384,-0.00000082,0.00001196,0.0
 0000307,0.00000196,0.00000279,0.00001113,-0.00000356,-0.00000573,-0.00
 000495,0.00000604,0.00001511,-0.00001077,0.00003780,0.00000063,-0.0000
 0271,0.00000569,-0.00000455,0.00000423,-0.00001353,-0.00000244,-0.0000
 0740,-0.00000358,-0.00001133,-0.00000118,-0.00000317,0.00003388,0.0000
 1347,0.00001059,-0.00000113,-0.00000049,-0.00000184,-0.00001131,-0.000
 00086,0.00000929,0.00000826,0.00001478,-0.00000094,0.00000039,0.000000
 53,0.00000396,0.00000328,-0.00000229,-0.00000257,-0.00000799,-0.000003
 74,-0.00000133,-0.00000112,-0.00000280,0.00000077,0.00000231,0.0000002
 6,-0.00000053,-0.00001118,0.00000266,-0.00004347,0.00000360,0.00001734
 ,0.00001360,-0.00000202,-0.00000137,0.00000152,-0.00000639,0.00000386,
 0.00000610,0.00000201,0.00000007,0.00000490\\\@
 The archive entry for this job was punched.


 ONE BIG VICE IN A MAN IS APT TO KEEP OUT MANY SMALLER ONES.

                           -- BRET HARTE
 Job cpu time:       2 days  1 hours 18 minutes 49.4 seconds.
 Elapsed time:       0 days  1 hours  4 minutes 33.4 seconds.
 File lengths (MBytes):  RWF=   6292 Int=      0 D2E=      0 Chk=     79 Scr=      2
 Normal termination of Gaussian 16 at Tue Jun 20 17:08:06 2023.
