 Entering Gaussian System, Link 0=g16
 Initial command:
 /home/chesagar/softwares/G16_AVX2//g16/l1.exe "/home/chesagar/scratch/Gau-67778.inp" -scrdir="/home/chesagar/scratch/"
 Entering Link 1 = /home/chesagar/softwares/G16_AVX2//g16/l1.exe PID=     67780.
  
 Copyright (c) 1988-2019, Gaussian, Inc.  All Rights Reserved.
  
 This is part of the Gaussian(R) 16 program.  It is based on
 the Gaussian(R) 09 system (copyright 2009, Gaussian, Inc.),
 the Gaussian(R) 03 system (copyright 2003, Gaussian, Inc.),
 the Gaussian(R) 98 system (copyright 1998, Gaussian, Inc.),
 the Gaussian(R) 94 system (copyright 1995, Gaussian, Inc.),
 the Gaussian 92(TM) system (copyright 1992, Gaussian, Inc.),
 the Gaussian 90(TM) system (copyright 1990, Gaussian, Inc.),
 the Gaussian 88(TM) system (copyright 1988, Gaussian, Inc.),
 the Gaussian 86(TM) system (copyright 1986, Carnegie Mellon
 University), and the Gaussian 82(TM) system (copyright 1983,
 Carnegie Mellon University). Gaussian is a federally registered
 trademark of Gaussian, Inc.
  
 This software contains proprietary and confidential information,
 including trade secrets, belonging to Gaussian, Inc.
  
 This software is provided under written license and may be
 used, copied, transmitted, or stored only in accord with that
 written license.
  
 The following legend is applicable only to US Government
 contracts under FAR:
  
                    RESTRICTED RIGHTS LEGEND
  
 Use, reproduction and disclosure by the US Government is
 subject to restrictions as set forth in subparagraphs (a)
 and (c) of the Commercial Computer Software - Restricted
 Rights clause in FAR 52.227-19.
  
 Gaussian, Inc.
 340 Quinnipiac St., Bldg. 40, Wallingford CT 06492
  
  
 ---------------------------------------------------------------
 Warning -- This program may not be used in any manner that
 competes with the business of Gaussian, Inc. or will provide
 assistance to any competitor of Gaussian, Inc.  The licensee
 of this program is prohibited from giving any competitor of
 Gaussian, Inc. access to this program.  By using this program,
 the user acknowledges that Gaussian, Inc. is engaged in the
 business of creating and licensing software in the field of
 computational chemistry and represents and warrants to the
 licensee that it is not a competitor of Gaussian, Inc. and that
 it will not use this program in any manner prohibited above.
 ---------------------------------------------------------------
  

 Cite this work as:
 Gaussian 16, Revision C.01,
 M. J. Frisch, G. W. Trucks, H. B. Schlegel, G. E. Scuseria, 
 M. A. Robb, J. R. Cheeseman, G. Scalmani, V. Barone, 
 G. A. Petersson, H. Nakatsuji, X. Li, M. Caricato, A. V. Marenich, 
 J. Bloino, B. G. Janesko, R. Gomperts, B. Mennucci, H. P. Hratchian, 
 J. V. Ortiz, A. F. Izmaylov, J. L. Sonnenberg, D. Williams-Young, 
 F. Ding, F. Lipparini, F. Egidi, J. Goings, B. Peng, A. Petrone, 
 T. Henderson, D. Ranasinghe, V. G. Zakrzewski, J. Gao, N. Rega, 
 G. Zheng, W. Liang, M. Hada, M. Ehara, K. Toyota, R. Fukuda, 
 J. Hasegawa, M. Ishida, T. Nakajima, Y. Honda, O. Kitao, H. Nakai, 
 T. Vreven, K. Throssell, J. A. Montgomery, Jr., J. E. Peralta, 
 F. Ogliaro, M. J. Bearpark, J. J. Heyd, E. N. Brothers, K. N. Kudin, 
 V. N. Staroverov, T. A. Keith, R. Kobayashi, J. Normand, 
 K. Raghavachari, A. P. Rendell, J. C. Burant, S. S. Iyengar, 
 J. Tomasi, M. Cossi, J. M. Millam, M. Klene, C. Adamo, R. Cammi, 
 J. W. Ochterski, R. L. Martin, K. Morokuma, O. Farkas, 
 J. B. Foresman, and D. J. Fox, Gaussian, Inc., Wallingford CT, 2019.
 
 ******************************************
 Gaussian 16:  ES64L-G16RevC.01  3-Jul-2019
                21-Jun-2023 
 ******************************************
 %nprocshared=46
 Will use up to   46 processors via shared memory.
 %mem=100GB
 ---------------------------------------------------------
 # opt freq b3lyp/gen nosymm pseudo=read scf=maxcycles=500
 ---------------------------------------------------------
 1/18=20,19=15,26=3,38=1/1,3;
 2/9=110,12=2,15=1,17=6,18=5,40=1/2;
 3/5=7,11=2,16=1,17=8,25=1,30=1,71=1,74=-5/1,2,3;
 4//1;
 5/5=2,7=500,38=5/2;
 6/7=2,8=2,9=2,10=2,28=1/1;
 7/30=1/1,2,3,16;
 1/18=20,19=15,26=3/3(2);
 2/9=110,15=1/2;
 99//99;
 2/9=110,15=1/2;
 3/5=7,6=1,11=2,16=1,17=8,25=1,30=1,71=1,74=-5,82=7/1,2,3;
 4/5=5,16=3,69=1/1;
 5/5=2,7=500,38=5/2;
 7/30=1/1,2,3,16;
 1/18=20,19=15,26=3/3(-5);
 2/9=110,15=1/2;
 6/7=2,8=2,9=2,10=2,19=2,28=1/1;
 99/9=1/99;
 -------------------
 Title Card Required
 -------------------
 Symbolic Z-matrix:
 Charge =  0 Multiplicity = 1
 42                    0.7576    1.31937   12.01093 
 16                    1.53522   3.44869   12.63102 
 16                   -1.50275   1.28642   12.70312 
 16                    0.34675   1.22615   9.63828 
 16                    2.83717   0.05305   11.18104 
 42                   -1.5706    2.24957   10.58884 
 16                   -2.16608   2.24233   8.176 
 16                   -1.04231   4.39938   10.85414 
 42                    1.28201   3.42136   10.20065 
 16                    0.53333   4.04838   7.87184 
 16                    3.36459   2.63746   9.12876 
 42                    3.37822   2.46309   11.50078 
 42                   -1.85999   4.69312   8.35887 
 16                    4.41711   1.82946   13.79235 
 16                    4.90921   4.26153   11.61057 
 16                   -3.84047   5.65481   9.42181 
 16                   -0.78538   6.92924   8.88519 
 42                   -4.17491   3.32674   8.86121 
 16                   -6.56314   3.89329   9.68413 
 16                   -3.98721   2.06179   10.82408 
 42                    3.11456   0.05919   13.47982 
 16                    4.01148  -1.71323   14.22578 
 16                    1.09757   0.41503   14.36001 
 42                    1.41533   6.37087   7.85564 
 16                    0.77749   6.24164   5.50442 
 16                    1.77199   5.8815    10.35685 
 42                    3.73264   4.98871   9.64798 
 16                    3.51004   5.17296   7.25143 
 16                    5.04799   7.02414   9.92512 
 42                    4.06551   7.33718   7.95994 
 16                    5.59863   7.97891   6.34704 
 16                    2.24659   8.81455   8.19414 
 42                    1.26541   8.4589    6.06327 
 16                    2.57386   9.21551   4.33529 
 16                   -0.6922    9.43253   6.27439 
 42                   -1.22537   7.02504   6.65894 
 16                   -2.17243   4.88978   5.96394 
 16                   -3.45685   8.14718   6.90866 
 42                   -3.96009   6.0087    7.09093 
 16                   -5.68396   5.43059   5.43472 
 16                   -6.5114    6.42597   7.11266 
 42                   -6.7004    4.00412   7.48002 
 16                   -5.0878    2.41443   6.92062 
 16                   -8.59479   3.22675   6.93192 
 42                    4.55815   7.95014   4.2738 
 16                    4.09798   5.96336   3.70444 
 16                    5.86352   8.80533   2.84933 
 

 GradGradGradGradGradGradGradGradGradGradGradGradGradGradGradGradGradGrad
 Berny optimization.
 Initialization pass.
                           ----------------------------
                           !    Initial Parameters    !
                           ! (Angstroms and Degrees)  !
 --------------------------                            --------------------------
 ! Name  Definition              Value          Derivative Info.                !
 --------------------------------------------------------------------------------
 ! R1    R(1,2)                  2.3502         estimate D2E/DX2                !
 ! R2    R(1,3)                  2.3642         estimate D2E/DX2                !
 ! R3    R(1,4)                  2.4098         estimate D2E/DX2                !
 ! R4    R(1,5)                  2.5723         estimate D2E/DX2                !
 ! R5    R(1,6)                  2.8824         estimate D2E/DX2                !
 ! R6    R(1,9)                  2.8232         estimate D2E/DX2                !
 ! R7    R(1,12)                 2.9045         estimate D2E/DX2                !
 ! R8    R(1,21)                 3.0497         estimate D2E/DX2                !
 ! R9    R(1,23)                 2.54           estimate D2E/DX2                !
 ! R10   R(2,9)                  2.4437         estimate D2E/DX2                !
 ! R11   R(2,12)                 2.376          estimate D2E/DX2                !
 ! R12   R(3,6)                  2.3243         estimate D2E/DX2                !
 ! R13   R(4,6)                  2.3722         estimate D2E/DX2                !
 ! R14   R(4,9)                  2.4515         estimate D2E/DX2                !
 ! R15   R(5,12)                 2.4906         estimate D2E/DX2                !
 ! R16   R(5,21)                 2.3155         estimate D2E/DX2                !
 ! R17   R(6,7)                  2.4853         estimate D2E/DX2                !
 ! R18   R(6,8)                  2.2296         estimate D2E/DX2                !
 ! R19   R(6,9)                  3.1082         estimate D2E/DX2                !
 ! R20   R(6,20)                 2.4353         estimate D2E/DX2                !
 ! R21   R(7,13)                 2.4766         estimate D2E/DX2                !
 ! R22   R(7,18)                 2.3835         estimate D2E/DX2                !
 ! R23   R(8,9)                  2.605          estimate D2E/DX2                !
 ! R24   R(8,13)                 2.6422         estimate D2E/DX2                !
 ! R25   R(9,10)                 2.5253         estimate D2E/DX2                !
 ! R26   R(9,11)                 2.4699         estimate D2E/DX2                !
 ! R27   R(9,12)                 2.6463         estimate D2E/DX2                !
 ! R28   R(9,26)                 2.5133         estimate D2E/DX2                !
 ! R29   R(9,27)                 2.961          estimate D2E/DX2                !
 ! R30   R(10,13)                2.526          estimate D2E/DX2                !
 ! R31   R(10,24)                2.4844         estimate D2E/DX2                !
 ! R32   R(11,12)                2.3785         estimate D2E/DX2                !
 ! R33   R(11,27)                2.4359         estimate D2E/DX2                !
 ! R34   R(12,14)                2.5946         estimate D2E/DX2                !
 ! R35   R(12,15)                2.3644         estimate D2E/DX2                !
 ! R36   R(13,16)                2.4448         estimate D2E/DX2                !
 ! R37   R(13,17)                2.5361         estimate D2E/DX2                !
 ! R38   R(13,18)                2.7346         estimate D2E/DX2                !
 ! R39   R(13,36)                2.9547         estimate D2E/DX2                !
 ! R40   R(13,37)                2.4232         estimate D2E/DX2                !
 ! R41   R(13,39)                2.7837         estimate D2E/DX2                !
 ! R42   R(14,21)                2.22           estimate D2E/DX2                !
 ! R43   R(15,27)                2.401          estimate D2E/DX2                !
 ! R44   R(16,18)                2.4179         estimate D2E/DX2                !
 ! R45   R(16,39)                2.3606         estimate D2E/DX2                !
 ! R46   R(17,24)                2.493          estimate D2E/DX2                !
 ! R47   R(17,36)                2.2713         estimate D2E/DX2                !
 ! R48   R(18,19)                2.5888         estimate D2E/DX2                !
 ! R49   R(18,20)                2.3427         estimate D2E/DX2                !
 ! R50   R(18,42)                2.9571         estimate D2E/DX2                !
 ! R51   R(18,43)                2.3306         estimate D2E/DX2                !
 ! R52   R(19,42)                2.2112         estimate D2E/DX2                !
 ! R53   R(21,22)                2.1219         estimate D2E/DX2                !
 ! R54   R(21,23)                2.2293         estimate D2E/DX2                !
 ! R55   R(24,25)                2.4396         estimate D2E/DX2                !
 ! R56   R(24,26)                2.5735         estimate D2E/DX2                !
 ! R57   R(24,28)                2.4875         estimate D2E/DX2                !
 ! R58   R(24,30)                2.8228         estimate D2E/DX2                !
 ! R59   R(24,32)                2.6033         estimate D2E/DX2                !
 ! R60   R(24,33)                2.7559         estimate D2E/DX2                !
 ! R61   R(24,36)                2.9721         estimate D2E/DX2                !
 ! R62   R(25,33)                2.3381         estimate D2E/DX2                !
 ! R63   R(25,36)                2.4409         estimate D2E/DX2                !
 ! R64   R(26,27)                2.268          estimate D2E/DX2                !
 ! R65   R(27,28)                2.4139         estimate D2E/DX2                !
 ! R66   R(27,29)                2.4392         estimate D2E/DX2                !
 ! R67   R(27,30)                2.9113         estimate D2E/DX2                !
 ! R68   R(28,30)                2.344          estimate D2E/DX2                !
 ! R69   R(29,30)                2.2193         estimate D2E/DX2                !
 ! R70   R(30,31)                2.316          estimate D2E/DX2                !
 ! R71   R(30,32)                2.355          estimate D2E/DX2                !
 ! R72   R(31,45)                2.3199         estimate D2E/DX2                !
 ! R73   R(32,33)                2.3727         estimate D2E/DX2                !
 ! R74   R(33,34)                2.2957         estimate D2E/DX2                !
 ! R75   R(33,35)                2.1965         estimate D2E/DX2                !
 ! R76   R(33,36)                2.9351         estimate D2E/DX2                !
 ! R77   R(34,45)                2.3542         estimate D2E/DX2                !
 ! R78   R(35,36)                2.4956         estimate D2E/DX2                !
 ! R79   R(36,37)                2.4371         estimate D2E/DX2                !
 ! R80   R(36,38)                2.5102         estimate D2E/DX2                !
 ! R81   R(36,39)                2.9493         estimate D2E/DX2                !
 ! R82   R(37,39)                2.3912         estimate D2E/DX2                !
 ! R83   R(38,39)                2.2044         estimate D2E/DX2                !
 ! R84   R(39,40)                2.4595         estimate D2E/DX2                !
 ! R85   R(39,41)                2.5853         estimate D2E/DX2                !
 ! R86   R(40,41)                2.1192         estimate D2E/DX2                !
 ! R87   R(40,42)                2.6928         estimate D2E/DX2                !
 ! R88   R(41,42)                2.4568         estimate D2E/DX2                !
 ! R89   R(42,43)                2.3325         estimate D2E/DX2                !
 ! R90   R(42,44)                2.1198         estimate D2E/DX2                !
 ! R91   R(45,46)                2.1174         estimate D2E/DX2                !
 ! R92   R(45,47)                2.1129         estimate D2E/DX2                !
 ! A1    A(2,1,3)              104.5795         estimate D2E/DX2                !
 ! A2    A(2,1,4)              110.5636         estimate D2E/DX2                !
 ! A3    A(2,1,5)              105.2871         estimate D2E/DX2                !
 ! A4    A(2,1,6)               96.0296         estimate D2E/DX2                !
 ! A5    A(2,1,21)              89.5179         estimate D2E/DX2                !
 ! A6    A(2,1,23)              91.9645         estimate D2E/DX2                !
 ! A7    A(3,1,4)               97.1649         estimate D2E/DX2                !
 ! A8    A(3,1,5)              149.3757         estimate D2E/DX2                !
 ! A9    A(3,1,9)              112.0676         estimate D2E/DX2                !
 ! A10   A(3,1,12)             156.8606         estimate D2E/DX2                !
 ! A11   A(3,1,21)             126.3075         estimate D2E/DX2                !
 ! A12   A(3,1,23)              81.5022         estimate D2E/DX2                !
 ! A13   A(4,1,5)               78.5296         estimate D2E/DX2                !
 ! A14   A(4,1,12)              89.778          estimate D2E/DX2                !
 ! A15   A(4,1,21)             126.1575         estimate D2E/DX2                !
 ! A16   A(4,1,23)             156.8736         estimate D2E/DX2                !
 ! A17   A(5,1,6)              130.7456         estimate D2E/DX2                !
 ! A18   A(5,1,9)               90.5438         estimate D2E/DX2                !
 ! A19   A(5,1,23)              90.8535         estimate D2E/DX2                !
 ! A20   A(6,1,12)             121.0011         estimate D2E/DX2                !
 ! A21   A(6,1,23)             132.7888         estimate D2E/DX2                !
 ! A22   A(9,1,21)             118.225          estimate D2E/DX2                !
 ! A23   A(9,1,23)             146.4332         estimate D2E/DX2                !
 ! A24   A(12,1,21)             63.2566         estimate D2E/DX2                !
 ! A25   A(12,1,23)            100.4793         estimate D2E/DX2                !
 ! A26   A(12,5,21)             81.023          estimate D2E/DX2                !
 ! A27   A(1,6,7)              132.19           estimate D2E/DX2                !
 ! A28   A(1,6,8)               93.5016         estimate D2E/DX2                !
 ! A29   A(1,6,20)             136.8026         estimate D2E/DX2                !
 ! A30   A(3,6,4)               99.3306         estimate D2E/DX2                !
 ! A31   A(3,6,7)              152.738          estimate D2E/DX2                !
 ! A32   A(3,6,8)              106.5229         estimate D2E/DX2                !
 ! A33   A(3,6,9)              104.0655         estimate D2E/DX2                !
 ! A34   A(3,6,20)              84.7875         estimate D2E/DX2                !
 ! A35   A(4,6,7)               78.6597         estimate D2E/DX2                !
 ! A36   A(4,6,8)              105.7923         estimate D2E/DX2                !
 ! A37   A(4,6,20)             143.8534         estimate D2E/DX2                !
 ! A38   A(7,6,8)              100.0847         estimate D2E/DX2                !
 ! A39   A(7,6,9)               95.7243         estimate D2E/DX2                !
 ! A40   A(7,6,20)              81.7086         estimate D2E/DX2                !
 ! A41   A(8,6,20)             107.3366         estimate D2E/DX2                !
 ! A42   A(9,6,20)             162.1484         estimate D2E/DX2                !
 ! A43   A(6,7,13)              84.0198         estimate D2E/DX2                !
 ! A44   A(6,7,18)              85.4979         estimate D2E/DX2                !
 ! A45   A(6,8,13)              85.4973         estimate D2E/DX2                !
 ! A46   A(9,8,13)              94.6433         estimate D2E/DX2                !
 ! A47   A(1,9,8)               87.3028         estimate D2E/DX2                !
 ! A48   A(1,9,10)             136.1476         estimate D2E/DX2                !
 ! A49   A(1,9,11)             101.4545         estimate D2E/DX2                !
 ! A50   A(1,9,26)             136.4814         estimate D2E/DX2                !
 ! A51   A(1,9,27)             131.876          estimate D2E/DX2                !
 ! A52   A(2,9,4)              106.1226         estimate D2E/DX2                !
 ! A53   A(2,9,6)               88.5733         estimate D2E/DX2                !
 ! A54   A(2,9,8)               80.7212         estimate D2E/DX2                !
 ! A55   A(2,9,10)             160.93           estimate D2E/DX2                !
 ! A56   A(2,9,11)             110.3523         estimate D2E/DX2                !
 ! A57   A(2,9,26)              84.6662         estimate D2E/DX2                !
 ! A58   A(2,9,27)              95.3912         estimate D2E/DX2                !
 ! A59   A(4,9,8)               93.0576         estimate D2E/DX2                !
 ! A60   A(4,9,10)              84.1274         estimate D2E/DX2                !
 ! A61   A(4,9,11)              86.4411         estimate D2E/DX2                !
 ! A62   A(4,9,12)              95.2007         estimate D2E/DX2                !
 ! A63   A(4,9,26)             164.8263         estimate D2E/DX2                !
 ! A64   A(4,9,27)             138.3237         estimate D2E/DX2                !
 ! A65   A(6,9,10)              86.3702         estimate D2E/DX2                !
 ! A66   A(6,9,11)             135.1031         estimate D2E/DX2                !
 ! A67   A(6,9,12)             121.9457         estimate D2E/DX2                !
 ! A68   A(6,9,26)             122.6957         estimate D2E/DX2                !
 ! A69   A(8,9,10)              82.7379         estimate D2E/DX2                !
 ! A70   A(8,9,12)             136.0129         estimate D2E/DX2                !
 ! A71   A(8,9,26)              77.9281         estimate D2E/DX2                !
 ! A72   A(8,9,27)             125.9123         estimate D2E/DX2                !
 ! A73   A(10,9,11)             85.9039         estimate D2E/DX2                !
 ! A74   A(10,9,12)            141.0637         estimate D2E/DX2                !
 ! A75   A(10,9,26)             82.6498         estimate D2E/DX2                !
 ! A76   A(10,9,27)             86.6641         estimate D2E/DX2                !
 ! A77   A(11,9,26)             99.9768         estimate D2E/DX2                !
 ! A78   A(12,9,26)             99.7584         estimate D2E/DX2                !
 ! A79   A(12,9,27)             68.1476         estimate D2E/DX2                !
 ! A80   A(9,10,13)             99.5826         estimate D2E/DX2                !
 ! A81   A(9,10,24)             97.6362         estimate D2E/DX2                !
 ! A82   A(13,10,24)            95.6826         estimate D2E/DX2                !
 ! A83   A(12,11,27)            81.7972         estimate D2E/DX2                !
 ! A84   A(1,12,11)            101.4708         estimate D2E/DX2                !
 ! A85   A(1,12,14)             96.3139         estimate D2E/DX2                !
 ! A86   A(1,12,15)            151.1162         estimate D2E/DX2                !
 ! A87   A(2,12,5)             107.0947         estimate D2E/DX2                !
 ! A88   A(2,12,11)            116.0746         estimate D2E/DX2                !
 ! A89   A(2,12,14)             89.5274         estimate D2E/DX2                !
 ! A90   A(2,12,15)             99.477          estimate D2E/DX2                !
 ! A91   A(5,12,9)              96.6183         estimate D2E/DX2                !
 ! A92   A(5,12,11)             86.6561         estimate D2E/DX2                !
 ! A93   A(5,12,14)             87.94           estimate D2E/DX2                !
 ! A94   A(5,12,15)            151.963          estimate D2E/DX2                !
 ! A95   A(9,12,14)            147.0903         estimate D2E/DX2                !
 ! A96   A(9,12,15)            105.0877         estimate D2E/DX2                !
 ! A97   A(11,12,14)           154.2907         estimate D2E/DX2                !
 ! A98   A(11,12,15)            89.6708         estimate D2E/DX2                !
 ! A99   A(14,12,15)            83.4238         estimate D2E/DX2                !
 ! A100  A(7,13,8)              89.8836         estimate D2E/DX2                !
 ! A101  A(7,13,10)             81.3896         estimate D2E/DX2                !
 ! A102  A(7,13,16)            108.7383         estimate D2E/DX2                !
 ! A103  A(7,13,17)            160.0865         estimate D2E/DX2                !
 ! A104  A(7,13,36)            139.9124         estimate D2E/DX2                !
 ! A105  A(7,13,37)             89.507          estimate D2E/DX2                !
 ! A106  A(7,13,39)            109.926          estimate D2E/DX2                !
 ! A107  A(8,13,10)             81.9809         estimate D2E/DX2                !
 ! A108  A(8,13,16)             83.3285         estimate D2E/DX2                !
 ! A109  A(8,13,17)             76.7563         estimate D2E/DX2                !
 ! A110  A(8,13,18)             91.8878         estimate D2E/DX2                !
 ! A111  A(8,13,36)            124.3748         estimate D2E/DX2                !
 ! A112  A(8,13,39)            135.7393         estimate D2E/DX2                !
 ! A113  A(10,13,16)           162.1287         estimate D2E/DX2                !
 ! A114  A(10,13,17)            82.1604         estimate D2E/DX2                !
 ! A115  A(10,13,18)           135.2293         estimate D2E/DX2                !
 ! A116  A(10,13,36)            83.5127         estimate D2E/DX2                !
 ! A117  A(10,13,37)            87.2674         estimate D2E/DX2                !
 ! A118  A(10,13,39)           138.3834         estimate D2E/DX2                !
 ! A119  A(16,13,17)            84.6172         estimate D2E/DX2                !
 ! A120  A(16,13,36)            96.5277         estimate D2E/DX2                !
 ! A121  A(16,13,37)           107.0575         estimate D2E/DX2                !
 ! A122  A(17,13,18)           139.5623         estimate D2E/DX2                !
 ! A123  A(17,13,37)           100.8468         estimate D2E/DX2                !
 ! A124  A(17,13,39)            89.8565         estimate D2E/DX2                !
 ! A125  A(18,13,36)           132.9877         estimate D2E/DX2                !
 ! A126  A(18,13,37)            96.4856         estimate D2E/DX2                !
 ! A127  A(18,13,39)            71.4077         estimate D2E/DX2                !
 ! A128  A(12,14,21)            80.5298         estimate D2E/DX2                !
 ! A129  A(12,15,27)            82.8256         estimate D2E/DX2                !
 ! A130  A(18,16,39)            84.7445         estimate D2E/DX2                !
 ! A131  A(13,17,24)            95.2128         estimate D2E/DX2                !
 ! A132  A(7,18,16)            112.8398         estimate D2E/DX2                !
 ! A133  A(7,18,20)             85.8529         estimate D2E/DX2                !
 ! A134  A(7,18,42)            133.6097         estimate D2E/DX2                !
 ! A135  A(7,18,43)             84.989          estimate D2E/DX2                !
 ! A136  A(13,18,19)           136.885          estimate D2E/DX2                !
 ! A137  A(13,18,20)           110.8476         estimate D2E/DX2                !
 ! A138  A(13,18,42)           121.5138         estimate D2E/DX2                !
 ! A139  A(13,18,43)           111.9761         estimate D2E/DX2                !
 ! A140  A(16,18,19)            80.9776         estimate D2E/DX2                !
 ! A141  A(16,18,20)           108.3338         estimate D2E/DX2                !
 ! A142  A(16,18,42)            90.3361         estimate D2E/DX2                !
 ! A143  A(16,18,43)           128.6206         estimate D2E/DX2                !
 ! A144  A(19,18,20)            85.7412         estimate D2E/DX2                !
 ! A145  A(19,18,43)            89.3698         estimate D2E/DX2                !
 ! A146  A(20,18,42)           125.694          estimate D2E/DX2                !
 ! A147  A(20,18,43)           121.1768         estimate D2E/DX2                !
 ! A148  A(6,20,18)             87.5318         estimate D2E/DX2                !
 ! A149  A(1,21,14)            101.0556         estimate D2E/DX2                !
 ! A150  A(1,21,22)            147.2629         estimate D2E/DX2                !
 ! A151  A(5,21,14)            102.2498         estimate D2E/DX2                !
 ! A152  A(5,21,22)            113.4189         estimate D2E/DX2                !
 ! A153  A(5,21,23)            106.5005         estimate D2E/DX2                !
 ! A154  A(14,21,22)           111.6284         estimate D2E/DX2                !
 ! A155  A(14,21,23)           110.3651         estimate D2E/DX2                !
 ! A156  A(22,21,23)           112.1467         estimate D2E/DX2                !
 ! A157  A(10,24,17)            83.8744         estimate D2E/DX2                !
 ! A158  A(10,24,25)            82.1807         estimate D2E/DX2                !
 ! A159  A(10,24,26)            82.2469         estimate D2E/DX2                !
 ! A160  A(10,24,28)            81.3936         estimate D2E/DX2                !
 ! A161  A(10,24,30)           130.7747         estimate D2E/DX2                !
 ! A162  A(10,24,33)           133.8854         estimate D2E/DX2                !
 ! A163  A(10,24,36)            83.855          estimate D2E/DX2                !
 ! A164  A(17,24,25)           100.3164         estimate D2E/DX2                !
 ! A165  A(17,24,26)            76.3229         estimate D2E/DX2                !
 ! A166  A(17,24,28)           162.0883         estimate D2E/DX2                !
 ! A167  A(17,24,30)           137.4643         estimate D2E/DX2                !
 ! A168  A(17,24,32)            91.0275         estimate D2E/DX2                !
 ! A169  A(17,24,33)            92.916          estimate D2E/DX2                !
 ! A170  A(25,24,26)           164.3366         estimate D2E/DX2                !
 ! A171  A(25,24,28)            87.7399         estimate D2E/DX2                !
 ! A172  A(25,24,30)           107.4101         estimate D2E/DX2                !
 ! A173  A(25,24,32)           104.9824         estimate D2E/DX2                !
 ! A174  A(26,24,28)            91.5924         estimate D2E/DX2                !
 ! A175  A(26,24,30)            84.2068         estimate D2E/DX2                !
 ! A176  A(26,24,32)            90.4508         estimate D2E/DX2                !
 ! A177  A(26,24,33)           141.6035         estimate D2E/DX2                !
 ! A178  A(26,24,36)           123.8027         estimate D2E/DX2                !
 ! A179  A(28,24,32)           102.3998         estimate D2E/DX2                !
 ! A180  A(28,24,33)           104.6374         estimate D2E/DX2                !
 ! A181  A(28,24,36)           139.1465         estimate D2E/DX2                !
 ! A182  A(30,24,33)            79.3821         estimate D2E/DX2                !
 ! A183  A(30,24,36)           140.6876         estimate D2E/DX2                !
 ! A184  A(32,24,36)            97.4382         estimate D2E/DX2                !
 ! A185  A(9,26,24)             95.6651         estimate D2E/DX2                !
 ! A186  A(24,26,27)            83.7359         estimate D2E/DX2                !
 ! A187  A(9,27,15)             95.3179         estimate D2E/DX2                !
 ! A188  A(9,27,28)             98.5915         estimate D2E/DX2                !
 ! A189  A(9,27,29)            150.0874         estimate D2E/DX2                !
 ! A190  A(9,27,30)            129.0392         estimate D2E/DX2                !
 ! A191  A(11,27,15)            87.4741         estimate D2E/DX2                !
 ! A192  A(11,27,26)           108.4198         estimate D2E/DX2                !
 ! A193  A(11,27,28)            81.2641         estimate D2E/DX2                !
 ! A194  A(11,27,29)           155.6662         estimate D2E/DX2                !
 ! A195  A(11,27,30)           132.2479         estimate D2E/DX2                !
 ! A196  A(15,27,26)           106.7005         estimate D2E/DX2                !
 ! A197  A(15,27,28)           151.6215         estimate D2E/DX2                !
 ! A198  A(15,27,29)            84.0079         estimate D2E/DX2                !
 ! A199  A(15,27,30)           131.4706         estimate D2E/DX2                !
 ! A200  A(26,27,28)           101.5688         estimate D2E/DX2                !
 ! A201  A(26,27,29)            95.8647         estimate D2E/DX2                !
 ! A202  A(26,27,30)            87.8523         estimate D2E/DX2                !
 ! A203  A(28,27,29)            95.6722         estimate D2E/DX2                !
 ! A204  A(24,28,27)            82.719          estimate D2E/DX2                !
 ! A205  A(24,30,27)            68.7728         estimate D2E/DX2                !
 ! A206  A(24,30,29)           113.5826         estimate D2E/DX2                !
 ! A207  A(24,30,31)           133.6791         estimate D2E/DX2                !
 ! A208  A(27,30,31)           134.6695         estimate D2E/DX2                !
 ! A209  A(27,30,32)           111.1055         estimate D2E/DX2                !
 ! A210  A(28,30,29)           104.0241         estimate D2E/DX2                !
 ! A211  A(28,30,31)           101.6658         estimate D2E/DX2                !
 ! A212  A(28,30,32)           115.2297         estimate D2E/DX2                !
 ! A213  A(29,30,31)           111.2669         estimate D2E/DX2                !
 ! A214  A(29,30,32)           110.0207         estimate D2E/DX2                !
 ! A215  A(31,30,32)           113.9989         estimate D2E/DX2                !
 ! A216  A(30,31,45)           108.7871         estimate D2E/DX2                !
 ! A217  A(30,32,33)            97.8196         estimate D2E/DX2                !
 ! A218  A(24,33,34)           135.091          estimate D2E/DX2                !
 ! A219  A(24,33,35)           108.7725         estimate D2E/DX2                !
 ! A220  A(25,33,32)           116.3018         estimate D2E/DX2                !
 ! A221  A(25,33,34)           104.5705         estimate D2E/DX2                !
 ! A222  A(25,33,35)           104.9126         estimate D2E/DX2                !
 ! A223  A(32,33,34)           113.0091         estimate D2E/DX2                !
 ! A224  A(32,33,35)           102.4616         estimate D2E/DX2                !
 ! A225  A(32,33,36)           103.9982         estimate D2E/DX2                !
 ! A226  A(34,33,35)           115.7353         estimate D2E/DX2                !
 ! A227  A(34,33,36)           142.8855         estimate D2E/DX2                !
 ! A228  A(33,34,45)           108.839          estimate D2E/DX2                !
 ! A229  A(13,36,24)            77.612          estimate D2E/DX2                !
 ! A230  A(13,36,25)           101.2484         estimate D2E/DX2                !
 ! A231  A(13,36,33)           133.2027         estimate D2E/DX2                !
 ! A232  A(13,36,35)           153.6222         estimate D2E/DX2                !
 ! A233  A(13,36,38)            96.0066         estimate D2E/DX2                !
 ! A234  A(17,36,25)           106.9246         estimate D2E/DX2                !
 ! A235  A(17,36,33)            93.1605         estimate D2E/DX2                !
 ! A236  A(17,36,35)            98.6461         estimate D2E/DX2                !
 ! A237  A(17,36,37)           108.5326         estimate D2E/DX2                !
 ! A238  A(17,36,38)            95.368          estimate D2E/DX2                !
 ! A239  A(17,36,39)            91.2331         estimate D2E/DX2                !
 ! A240  A(24,36,35)            94.8502         estimate D2E/DX2                !
 ! A241  A(24,36,37)           105.5011         estimate D2E/DX2                !
 ! A242  A(24,36,38)           148.0148         estimate D2E/DX2                !
 ! A243  A(24,36,39)           133.5538         estimate D2E/DX2                !
 ! A244  A(25,36,35)            93.5215         estimate D2E/DX2                !
 ! A245  A(25,36,37)            84.421          estimate D2E/DX2                !
 ! A246  A(25,36,38)           156.9196         estimate D2E/DX2                !
 ! A247  A(25,36,39)           136.0153         estimate D2E/DX2                !
 ! A248  A(33,36,37)           134.4212         estimate D2E/DX2                !
 ! A249  A(33,36,38)           123.7932         estimate D2E/DX2                !
 ! A250  A(35,36,37)           152.1653         estimate D2E/DX2                !
 ! A251  A(35,36,38)            76.9384         estimate D2E/DX2                !
 ! A252  A(35,36,39)           123.5802         estimate D2E/DX2                !
 ! A253  A(37,36,38)            94.2776         estimate D2E/DX2                !
 ! A254  A(13,39,38)           108.8989         estimate D2E/DX2                !
 ! A255  A(13,39,40)           136.4216         estimate D2E/DX2                !
 ! A256  A(13,39,41)           144.7826         estimate D2E/DX2                !
 ! A257  A(16,39,36)            98.5866         estimate D2E/DX2                !
 ! A258  A(16,39,37)           110.9365         estimate D2E/DX2                !
 ! A259  A(16,39,38)           102.4454         estimate D2E/DX2                !
 ! A260  A(16,39,40)           131.6974         estimate D2E/DX2                !
 ! A261  A(16,39,41)            93.779          estimate D2E/DX2                !
 ! A262  A(36,39,40)           129.2189         estimate D2E/DX2                !
 ! A263  A(36,39,41)           149.3921         estimate D2E/DX2                !
 ! A264  A(37,39,38)           104.1401         estimate D2E/DX2                !
 ! A265  A(37,39,40)            95.5451         estimate D2E/DX2                !
 ! A266  A(37,39,41)           144.811          estimate D2E/DX2                !
 ! A267  A(38,39,40)           109.4114         estimate D2E/DX2                !
 ! A268  A(38,39,41)            93.9801         estimate D2E/DX2                !
 ! A269  A(39,40,42)            82.9698         estimate D2E/DX2                !
 ! A270  A(39,41,42)            85.3005         estimate D2E/DX2                !
 ! A271  A(18,42,40)            98.8436         estimate D2E/DX2                !
 ! A272  A(18,42,41)           103.2938         estimate D2E/DX2                !
 ! A273  A(18,42,44)           143.1297         estimate D2E/DX2                !
 ! A274  A(19,42,40)           139.4854         estimate D2E/DX2                !
 ! A275  A(19,42,41)           101.1678         estimate D2E/DX2                !
 ! A276  A(19,42,43)            99.3224         estimate D2E/DX2                !
 ! A277  A(19,42,44)           107.1477         estimate D2E/DX2                !
 ! A278  A(40,42,43)            85.2915         estimate D2E/DX2                !
 ! A279  A(40,42,44)           109.5849         estimate D2E/DX2                !
 ! A280  A(41,42,43)           125.6471         estimate D2E/DX2                !
 ! A281  A(41,42,44)           113.0532         estimate D2E/DX2                !
 ! A282  A(43,42,44)           107.8128         estimate D2E/DX2                !
 ! A283  A(31,45,34)           110.3666         estimate D2E/DX2                !
 ! A284  A(31,45,46)           110.452          estimate D2E/DX2                !
 ! A285  A(31,45,47)           108.6864         estimate D2E/DX2                !
 ! A286  A(34,45,46)           109.1587         estimate D2E/DX2                !
 ! A287  A(34,45,47)           108.7108         estimate D2E/DX2                !
 ! A288  A(46,45,47)           109.4367         estimate D2E/DX2                !
 ! A289  L(6,1,21,12,-1)       184.2578         estimate D2E/DX2                !
 ! A290  L(6,9,27,2,-1)        183.9645         estimate D2E/DX2                !
 ! A291  L(8,9,11,1,-1)        188.7573         estimate D2E/DX2                !
 ! A292  L(8,13,37,7,-1)       179.3907         estimate D2E/DX2                !
 ! A293  L(7,18,19,16,-1)      193.8174         estimate D2E/DX2                !
 ! A294  L(10,24,32,17,-1)     174.902          estimate D2E/DX2                !
 ! A295  L(33,36,39,17,-1)     184.3937         estimate D2E/DX2                !
 ! A296  L(6,1,21,12,-2)       184.155          estimate D2E/DX2                !
 ! A297  L(6,9,27,2,-2)        190.0192         estimate D2E/DX2                !
 ! A298  L(8,9,11,1,-2)        172.6712         estimate D2E/DX2                !
 ! A299  L(8,13,37,7,-2)       190.7825         estimate D2E/DX2                !
 ! A300  L(7,18,19,16,-2)      184.3134         estimate D2E/DX2                !
 ! A301  L(10,24,32,17,-2)     173.6955         estimate D2E/DX2                !
 ! A302  L(33,36,39,17,-2)     171.0686         estimate D2E/DX2                !
 ! D1    D(2,1,6,7)            111.2905         estimate D2E/DX2                !
 ! D2    D(2,1,6,8)              4.2985         estimate D2E/DX2                !
 ! D3    D(2,1,6,20)          -115.7879         estimate D2E/DX2                !
 ! D4    D(5,1,6,7)             -4.8736         estimate D2E/DX2                !
 ! D5    D(5,1,6,8)           -111.8657         estimate D2E/DX2                !
 ! D6    D(5,1,6,20)           128.048          estimate D2E/DX2                !
 ! D7    D(12,1,6,7)            61.9033         estimate D2E/DX2                !
 ! D8    D(12,1,6,8)           -45.0888         estimate D2E/DX2                !
 ! D9    D(12,1,6,20)         -165.1751         estimate D2E/DX2                !
 ! D10   D(23,1,6,7)          -150.3871         estimate D2E/DX2                !
 ! D11   D(23,1,6,8)           102.6209         estimate D2E/DX2                !
 ! D12   D(23,1,6,20)          -17.4655         estimate D2E/DX2                !
 ! D13   D(3,1,9,8)             12.5496         estimate D2E/DX2                !
 ! D14   D(3,1,9,10)           -64.0534         estimate D2E/DX2                !
 ! D15   D(3,1,9,11)          -160.1216         estimate D2E/DX2                !
 ! D16   D(3,1,9,26)            81.8378         estimate D2E/DX2                !
 ! D17   D(3,1,9,27)           150.8276         estimate D2E/DX2                !
 ! D18   D(5,1,9,8)            171.3681         estimate D2E/DX2                !
 ! D19   D(5,1,9,10)            94.765          estimate D2E/DX2                !
 ! D20   D(5,1,9,11)            -1.3032         estimate D2E/DX2                !
 ! D21   D(5,1,9,26)          -119.3437         estimate D2E/DX2                !
 ! D22   D(5,1,9,27)           -50.3539         estimate D2E/DX2                !
 ! D23   D(21,1,9,8)          -147.9688         estimate D2E/DX2                !
 ! D24   D(21,1,9,10)          135.4281         estimate D2E/DX2                !
 ! D25   D(21,1,9,11)           39.36           estimate D2E/DX2                !
 ! D26   D(21,1,9,26)          -78.6806         estimate D2E/DX2                !
 ! D27   D(21,1,9,27)           -9.6908         estimate D2E/DX2                !
 ! D28   D(23,1,9,8)           -96.268          estimate D2E/DX2                !
 ! D29   D(23,1,9,10)         -172.871          estimate D2E/DX2                !
 ! D30   D(23,1,9,11)           91.0608         estimate D2E/DX2                !
 ! D31   D(23,1,9,26)          -26.9797         estimate D2E/DX2                !
 ! D32   D(23,1,9,27)           42.0101         estimate D2E/DX2                !
 ! D33   D(3,1,12,11)         -105.7691         estimate D2E/DX2                !
 ! D34   D(3,1,12,14)           92.8911         estimate D2E/DX2                !
 ! D35   D(3,1,12,15)            5.0672         estimate D2E/DX2                !
 ! D36   D(4,1,12,11)            2.1893         estimate D2E/DX2                !
 ! D37   D(4,1,12,14)         -159.1505         estimate D2E/DX2                !
 ! D38   D(4,1,12,15)          113.0256         estimate D2E/DX2                !
 ! D39   D(6,1,12,11)          -42.1544         estimate D2E/DX2                !
 ! D40   D(6,1,12,14)          156.5057         estimate D2E/DX2                !
 ! D41   D(6,1,12,15)           68.6819         estimate D2E/DX2                !
 ! D42   D(21,1,12,11)         133.6906         estimate D2E/DX2                !
 ! D43   D(21,1,12,14)         -27.6493         estimate D2E/DX2                !
 ! D44   D(21,1,12,15)        -115.4731         estimate D2E/DX2                !
 ! D45   D(23,1,12,11)         161.3417         estimate D2E/DX2                !
 ! D46   D(23,1,12,14)           0.0018         estimate D2E/DX2                !
 ! D47   D(23,1,12,15)         -87.822          estimate D2E/DX2                !
 ! D48   D(2,1,21,14)          -14.0175         estimate D2E/DX2                !
 ! D49   D(2,1,21,22)          169.2467         estimate D2E/DX2                !
 ! D50   D(3,1,21,14)         -121.8477         estimate D2E/DX2                !
 ! D51   D(3,1,21,22)           61.4165         estimate D2E/DX2                !
 ! D52   D(4,1,21,14)          101.3804         estimate D2E/DX2                !
 ! D53   D(4,1,21,22)          -75.3554         estimate D2E/DX2                !
 ! D54   D(9,1,21,14)           35.5995         estimate D2E/DX2                !
 ! D55   D(9,1,21,22)         -141.1363         estimate D2E/DX2                !
 ! D56   D(12,1,21,14)          33.318          estimate D2E/DX2                !
 ! D57   D(12,1,21,22)        -143.4178         estimate D2E/DX2                !
 ! D58   D(1,2,9,12)           -81.9195         estimate D2E/DX2                !
 ! D59   D(1,4,6,9)             72.8765         estimate D2E/DX2                !
 ! D60   D(21,5,12,2)          -69.245          estimate D2E/DX2                !
 ! D61   D(21,5,12,9)         -127.676          estimate D2E/DX2                !
 ! D62   D(21,5,12,11)         174.4804         estimate D2E/DX2                !
 ! D63   D(21,5,12,14)          19.6263         estimate D2E/DX2                !
 ! D64   D(21,5,12,15)          91.4858         estimate D2E/DX2                !
 ! D65   D(12,5,21,14)         -23.6695         estimate D2E/DX2                !
 ! D66   D(12,5,21,22)        -144.0057         estimate D2E/DX2                !
 ! D67   D(12,5,21,23)          92.1616         estimate D2E/DX2                !
 ! D68   D(1,6,7,13)          -110.0858         estimate D2E/DX2                !
 ! D69   D(1,6,7,18)          -178.8505         estimate D2E/DX2                !
 ! D70   D(3,6,7,13)           161.4517         estimate D2E/DX2                !
 ! D71   D(3,6,7,18)            92.6871         estimate D2E/DX2                !
 ! D72   D(4,6,7,13)          -110.164          estimate D2E/DX2                !
 ! D73   D(4,6,7,18)          -178.9286         estimate D2E/DX2                !
 ! D74   D(8,6,7,13)            -5.9078         estimate D2E/DX2                !
 ! D75   D(8,6,7,18)           -74.6725         estimate D2E/DX2                !
 ! D76   D(9,6,7,13)           -61.8496         estimate D2E/DX2                !
 ! D77   D(9,6,7,18)          -130.6142         estimate D2E/DX2                !
 ! D78   D(20,6,7,13)          100.3488         estimate D2E/DX2                !
 ! D79   D(20,6,7,18)           31.5842         estimate D2E/DX2                !
 ! D80   D(1,6,8,13)           139.4938         estimate D2E/DX2                !
 ! D81   D(3,6,8,13)          -168.4752         estimate D2E/DX2                !
 ! D82   D(4,6,8,13)            86.4757         estimate D2E/DX2                !
 ! D83   D(7,6,8,13)             5.5232         estimate D2E/DX2                !
 ! D84   D(20,6,8,13)          -78.8573         estimate D2E/DX2                !
 ! D85   D(3,6,9,2)            -22.3267         estimate D2E/DX2                !
 ! D86   D(3,6,9,10)           176.0701         estimate D2E/DX2                !
 ! D87   D(3,6,9,11)            95.5711         estimate D2E/DX2                !
 ! D88   D(3,6,9,12)            24.5527         estimate D2E/DX2                !
 ! D89   D(3,6,9,26)          -105.0605         estimate D2E/DX2                !
 ! D90   D(7,6,9,2)            176.57           estimate D2E/DX2                !
 ! D91   D(7,6,9,10)            14.9668         estimate D2E/DX2                !
 ! D92   D(7,6,9,11)           -65.5321         estimate D2E/DX2                !
 ! D93   D(7,6,9,12)          -136.5506         estimate D2E/DX2                !
 ! D94   D(7,6,9,26)            93.8362         estimate D2E/DX2                !
 ! D95   D(20,6,9,2)            95.8651         estimate D2E/DX2                !
 ! D96   D(20,6,9,10)          -65.7381         estimate D2E/DX2                !
 ! D97   D(20,6,9,11)         -146.237          estimate D2E/DX2                !
 ! D98   D(20,6,9,12)          142.7445         estimate D2E/DX2                !
 ! D99   D(20,6,9,26)           13.1314         estimate D2E/DX2                !
 ! D100  D(1,6,20,18)         -178.871          estimate D2E/DX2                !
 ! D101  D(3,6,20,18)          171.6253         estimate D2E/DX2                !
 ! D102  D(4,6,20,18)          -89.683          estimate D2E/DX2                !
 ! D103  D(7,6,20,18)          -32.1213         estimate D2E/DX2                !
 ! D104  D(8,6,20,18)           65.9198         estimate D2E/DX2                !
 ! D105  D(9,6,20,18)           50.7734         estimate D2E/DX2                !
 ! D106  D(6,7,13,8)             4.9056         estimate D2E/DX2                !
 ! D107  D(6,7,13,10)           86.8122         estimate D2E/DX2                !
 ! D108  D(6,7,13,16)          -78.0079         estimate D2E/DX2                !
 ! D109  D(6,7,13,17)           52.2006         estimate D2E/DX2                !
 ! D110  D(6,7,13,36)          155.8748         estimate D2E/DX2                !
 ! D111  D(6,7,13,37)          174.1231         estimate D2E/DX2                !
 ! D112  D(6,7,13,39)         -134.6506         estimate D2E/DX2                !
 ! D113  D(6,7,18,16)           75.4646         estimate D2E/DX2                !
 ! D114  D(6,7,18,20)          -32.6954         estimate D2E/DX2                !
 ! D115  D(6,7,18,42)         -170.3299         estimate D2E/DX2                !
 ! D116  D(6,7,18,43)         -154.5246         estimate D2E/DX2                !
 ! D117  D(13,8,9,1)          -129.6019         estimate D2E/DX2                !
 ! D118  D(13,8,9,2)           178.0764         estimate D2E/DX2                !
 ! D119  D(13,8,9,4)           -76.0777         estimate D2E/DX2                !
 ! D120  D(13,8,9,10)            7.6013         estimate D2E/DX2                !
 ! D121  D(13,8,9,12)         -176.7998         estimate D2E/DX2                !
 ! D122  D(13,8,9,26)           91.5954         estimate D2E/DX2                !
 ! D123  D(13,8,9,27)           88.1207         estimate D2E/DX2                !
 ! D124  D(6,8,13,7)            -5.4567         estimate D2E/DX2                !
 ! D125  D(6,8,13,10)          -86.7772         estimate D2E/DX2                !
 ! D126  D(6,8,13,16)          103.4286         estimate D2E/DX2                !
 ! D127  D(6,8,13,17)         -170.5568         estimate D2E/DX2                !
 ! D128  D(6,8,13,18)           48.6768         estimate D2E/DX2                !
 ! D129  D(6,8,13,36)         -163.2084         estimate D2E/DX2                !
 ! D130  D(6,8,13,39)          113.6365         estimate D2E/DX2                !
 ! D131  D(9,8,13,7)            73.7079         estimate D2E/DX2                !
 ! D132  D(9,8,13,10)           -7.6126         estimate D2E/DX2                !
 ! D133  D(9,8,13,16)         -177.4068         estimate D2E/DX2                !
 ! D134  D(9,8,13,17)          -91.3922         estimate D2E/DX2                !
 ! D135  D(9,8,13,18)          127.8414         estimate D2E/DX2                !
 ! D136  D(9,8,13,36)          -84.0438         estimate D2E/DX2                !
 ! D137  D(9,8,13,39)         -167.1989         estimate D2E/DX2                !
 ! D138  D(1,9,10,13)           70.3583         estimate D2E/DX2                !
 ! D139  D(1,9,10,24)          167.4785         estimate D2E/DX2                !
 ! D140  D(2,9,10,13)          -38.0295         estimate D2E/DX2                !
 ! D141  D(2,9,10,24)           59.0907         estimate D2E/DX2                !
 ! D142  D(4,9,10,13)           85.8113         estimate D2E/DX2                !
 ! D143  D(4,9,10,24)         -177.0685         estimate D2E/DX2                !
 ! D144  D(6,9,10,13)           36.9086         estimate D2E/DX2                !
 ! D145  D(6,9,10,24)          134.0288         estimate D2E/DX2                !
 ! D146  D(8,9,10,13)           -8.0397         estimate D2E/DX2                !
 ! D147  D(8,9,10,24)           89.0805         estimate D2E/DX2                !
 ! D148  D(11,9,10,13)         172.6471         estimate D2E/DX2                !
 ! D149  D(11,9,10,24)         -90.2326         estimate D2E/DX2                !
 ! D150  D(12,9,10,13)         176.8249         estimate D2E/DX2                !
 ! D151  D(12,9,10,24)         -86.0549         estimate D2E/DX2                !
 ! D152  D(26,9,10,13)         -86.7285         estimate D2E/DX2                !
 ! D153  D(26,9,10,24)          10.3918         estimate D2E/DX2                !
 ! D154  D(27,9,10,13)        -134.8896         estimate D2E/DX2                !
 ! D155  D(27,9,10,24)         -37.7694         estimate D2E/DX2                !
 ! D156  D(4,9,12,5)             0.0412         estimate D2E/DX2                !
 ! D157  D(4,9,12,14)          -96.4286         estimate D2E/DX2                !
 ! D158  D(4,9,12,15)          162.1364         estimate D2E/DX2                !
 ! D159  D(6,9,12,5)            43.7269         estimate D2E/DX2                !
 ! D160  D(6,9,12,14)          -52.7429         estimate D2E/DX2                !
 ! D161  D(6,9,12,15)         -154.1778         estimate D2E/DX2                !
 ! D162  D(8,9,12,5)            99.9115         estimate D2E/DX2                !
 ! D163  D(8,9,12,14)            3.4416         estimate D2E/DX2                !
 ! D164  D(8,9,12,15)          -97.9933         estimate D2E/DX2                !
 ! D165  D(10,9,12,5)          -87.0456         estimate D2E/DX2                !
 ! D166  D(10,9,12,14)         176.4846         estimate D2E/DX2                !
 ! D167  D(10,9,12,15)          75.0497         estimate D2E/DX2                !
 ! D168  D(26,9,12,5)         -177.407          estimate D2E/DX2                !
 ! D169  D(26,9,12,14)          86.1232         estimate D2E/DX2                !
 ! D170  D(26,9,12,15)         -15.3118         estimate D2E/DX2                !
 ! D171  D(27,9,12,5)         -140.4532         estimate D2E/DX2                !
 ! D172  D(27,9,12,14)         123.077          estimate D2E/DX2                !
 ! D173  D(27,9,12,15)          21.6421         estimate D2E/DX2                !
 ! D174  D(1,9,26,24)         -166.9261         estimate D2E/DX2                !
 ! D175  D(2,9,26,24)         -175.716          estimate D2E/DX2                !
 ! D176  D(4,9,26,24)          -39.5547         estimate D2E/DX2                !
 ! D177  D(6,9,26,24)          -90.859          estimate D2E/DX2                !
 ! D178  D(8,9,26,24)          -94.09           estimate D2E/DX2                !
 ! D179  D(10,9,26,24)          -9.9876         estimate D2E/DX2                !
 ! D180  D(11,9,26,24)          74.514          estimate D2E/DX2                !
 ! D181  D(12,9,26,24)         130.6924         estimate D2E/DX2                !
 ! D182  D(1,9,27,15)          -13.6426         estimate D2E/DX2                !
 ! D183  D(1,9,27,28)          141.5498         estimate D2E/DX2                !
 ! D184  D(1,9,27,29)         -100.8657         estimate D2E/DX2                !
 ! D185  D(1,9,27,30)         -172.3563         estimate D2E/DX2                !
 ! D186  D(2,9,27,15)           28.7556         estimate D2E/DX2                !
 ! D187  D(2,9,27,28)         -176.0521         estimate D2E/DX2                !
 ! D188  D(2,9,27,29)          -58.4675         estimate D2E/DX2                !
 ! D189  D(2,9,27,30)         -129.9581         estimate D2E/DX2                !
 ! D190  D(4,9,27,15)          -92.9464         estimate D2E/DX2                !
 ! D191  D(4,9,27,28)           62.246          estimate D2E/DX2                !
 ! D192  D(4,9,27,29)          179.8305         estimate D2E/DX2                !
 ! D193  D(4,9,27,30)          108.34           estimate D2E/DX2                !
 ! D194  D(8,9,27,15)          111.1924         estimate D2E/DX2                !
 ! D195  D(8,9,27,28)          -93.6152         estimate D2E/DX2                !
 ! D196  D(8,9,27,29)           23.9693         estimate D2E/DX2                !
 ! D197  D(8,9,27,30)          -47.5213         estimate D2E/DX2                !
 ! D198  D(10,9,27,15)        -170.26           estimate D2E/DX2                !
 ! D199  D(10,9,27,28)         -15.0676         estimate D2E/DX2                !
 ! D200  D(10,9,27,29)         102.5169         estimate D2E/DX2                !
 ! D201  D(10,9,27,30)          31.0264         estimate D2E/DX2                !
 ! D202  D(12,9,27,15)         -20.6207         estimate D2E/DX2                !
 ! D203  D(12,9,27,28)         134.5717         estimate D2E/DX2                !
 ! D204  D(12,9,27,29)        -107.8438         estimate D2E/DX2                !
 ! D205  D(12,9,27,30)        -179.3343         estimate D2E/DX2                !
 ! D206  D(9,10,13,7)          -83.1635         estimate D2E/DX2                !
 ! D207  D(9,10,13,8)            7.9399         estimate D2E/DX2                !
 ! D208  D(9,10,13,16)          42.9318         estimate D2E/DX2                !
 ! D209  D(9,10,13,17)          85.5748         estimate D2E/DX2                !
 ! D210  D(9,10,13,18)         -76.6217         estimate D2E/DX2                !
 ! D211  D(9,10,13,36)         134.088          estimate D2E/DX2                !
 ! D212  D(9,10,13,37)        -173.0785         estimate D2E/DX2                !
 ! D213  D(9,10,13,39)         166.4377         estimate D2E/DX2                !
 ! D214  D(24,10,13,7)         178.0805         estimate D2E/DX2                !
 ! D215  D(24,10,13,8)         -90.8161         estimate D2E/DX2                !
 ! D216  D(24,10,13,16)        -55.8242         estimate D2E/DX2                !
 ! D217  D(24,10,13,17)        -13.1812         estimate D2E/DX2                !
 ! D218  D(24,10,13,18)       -175.3777         estimate D2E/DX2                !
 ! D219  D(24,10,13,36)         35.332          estimate D2E/DX2                !
 ! D220  D(24,10,13,37)         88.1655         estimate D2E/DX2                !
 ! D221  D(24,10,13,39)         67.6817         estimate D2E/DX2                !
 ! D222  D(9,10,24,17)         -87.13           estimate D2E/DX2                !
 ! D223  D(9,10,24,25)         171.5353         estimate D2E/DX2                !
 ! D224  D(9,10,24,26)         -10.1558         estimate D2E/DX2                !
 ! D225  D(9,10,24,28)          82.6511         estimate D2E/DX2                !
 ! D226  D(9,10,24,30)          65.2521         estimate D2E/DX2                !
 ! D227  D(9,10,24,33)        -175.2828         estimate D2E/DX2                !
 ! D228  D(9,10,24,36)        -135.5621         estimate D2E/DX2                !
 ! D229  D(13,10,24,17)         13.3638         estimate D2E/DX2                !
 ! D230  D(13,10,24,25)        -87.9709         estimate D2E/DX2                !
 ! D231  D(13,10,24,26)         90.338          estimate D2E/DX2                !
 ! D232  D(13,10,24,28)       -176.855          estimate D2E/DX2                !
 ! D233  D(13,10,24,30)        165.7459         estimate D2E/DX2                !
 ! D234  D(13,10,24,33)        -74.789          estimate D2E/DX2                !
 ! D235  D(13,10,24,36)        -35.0682         estimate D2E/DX2                !
 ! D236  D(27,11,12,1)         121.5376         estimate D2E/DX2                !
 ! D237  D(27,11,12,2)          68.7733         estimate D2E/DX2                !
 ! D238  D(27,11,12,5)         176.1844         estimate D2E/DX2                !
 ! D239  D(27,11,12,14)       -105.6076         estimate D2E/DX2                !
 ! D240  D(27,11,12,15)        -31.6256         estimate D2E/DX2                !
 ! D241  D(12,11,27,15)         31.1221         estimate D2E/DX2                !
 ! D242  D(12,11,27,26)        -75.6455         estimate D2E/DX2                !
 ! D243  D(12,11,27,28)       -175.0078         estimate D2E/DX2                !
 ! D244  D(12,11,27,29)        100.5651         estimate D2E/DX2                !
 ! D245  D(12,11,27,30)        179.9286         estimate D2E/DX2                !
 ! D246  D(1,12,14,21)          35.253          estimate D2E/DX2                !
 ! D247  D(2,12,14,21)          86.5868         estimate D2E/DX2                !
 ! D248  D(5,12,14,21)         -20.5377         estimate D2E/DX2                !
 ! D249  D(9,12,14,21)          78.477          estimate D2E/DX2                !
 ! D250  D(11,12,14,21)        -98.459          estimate D2E/DX2                !
 ! D251  D(15,12,14,21)       -173.8173         estimate D2E/DX2                !
 ! D252  D(1,12,15,27)         -81.6072         estimate D2E/DX2                !
 ! D253  D(2,12,15,27)         -84.3502         estimate D2E/DX2                !
 ! D254  D(5,12,15,27)         114.3            estimate D2E/DX2                !
 ! D255  D(9,12,15,27)         -25.1809         estimate D2E/DX2                !
 ! D256  D(11,12,15,27)         32.0521         estimate D2E/DX2                !
 ! D257  D(14,12,15,27)       -172.7651         estimate D2E/DX2                !
 ! D258  D(7,13,17,24)          47.6594         estimate D2E/DX2                !
 ! D259  D(8,13,17,24)          96.6788         estimate D2E/DX2                !
 ! D260  D(10,13,17,24)         13.1246         estimate D2E/DX2                !
 ! D261  D(16,13,17,24)       -178.9281         estimate D2E/DX2                !
 ! D262  D(18,13,17,24)        173.7351         estimate D2E/DX2                !
 ! D263  D(37,13,17,24)        -72.5523         estimate D2E/DX2                !
 ! D264  D(39,13,17,24)       -125.9013         estimate D2E/DX2                !
 ! D265  D(8,13,18,19)          88.7896         estimate D2E/DX2                !
 ! D266  D(8,13,18,20)         -18.0963         estimate D2E/DX2                !
 ! D267  D(8,13,18,42)         146.8826         estimate D2E/DX2                !
 ! D268  D(8,13,18,43)        -156.7757         estimate D2E/DX2                !
 ! D269  D(10,13,18,19)        169.2945         estimate D2E/DX2                !
 ! D270  D(10,13,18,20)         62.4086         estimate D2E/DX2                !
 ! D271  D(10,13,18,42)       -132.6125         estimate D2E/DX2                !
 ! D272  D(10,13,18,43)        -76.2708         estimate D2E/DX2                !
 ! D273  D(17,13,18,19)         17.1333         estimate D2E/DX2                !
 ! D274  D(17,13,18,20)        -89.7527         estimate D2E/DX2                !
 ! D275  D(17,13,18,42)         75.2263         estimate D2E/DX2                !
 ! D276  D(17,13,18,43)        131.5679         estimate D2E/DX2                !
 ! D277  D(36,13,18,19)        -54.6267         estimate D2E/DX2                !
 ! D278  D(36,13,18,20)       -161.5126         estimate D2E/DX2                !
 ! D279  D(36,13,18,42)          3.4663         estimate D2E/DX2                !
 ! D280  D(36,13,18,43)         59.808          estimate D2E/DX2                !
 ! D281  D(37,13,18,19)        -98.0423         estimate D2E/DX2                !
 ! D282  D(37,13,18,20)        155.0718         estimate D2E/DX2                !
 ! D283  D(37,13,18,42)        -39.9493         estimate D2E/DX2                !
 ! D284  D(37,13,18,43)         16.3924         estimate D2E/DX2                !
 ! D285  D(39,13,18,19)        -49.3634         estimate D2E/DX2                !
 ! D286  D(39,13,18,20)       -156.2493         estimate D2E/DX2                !
 ! D287  D(39,13,18,42)          8.7296         estimate D2E/DX2                !
 ! D288  D(39,13,18,43)         65.0713         estimate D2E/DX2                !
 ! D289  D(7,13,36,24)         -97.8461         estimate D2E/DX2                !
 ! D290  D(7,13,36,25)         -50.6635         estimate D2E/DX2                !
 ! D291  D(7,13,36,33)         -96.0638         estimate D2E/DX2                !
 ! D292  D(7,13,36,35)        -173.4834         estimate D2E/DX2                !
 ! D293  D(7,13,36,38)         113.9328         estimate D2E/DX2                !
 ! D294  D(8,13,36,24)          46.1417         estimate D2E/DX2                !
 ! D295  D(8,13,36,25)          93.3242         estimate D2E/DX2                !
 ! D296  D(8,13,36,33)          47.924          estimate D2E/DX2                !
 ! D297  D(8,13,36,35)         -29.4956         estimate D2E/DX2                !
 ! D298  D(8,13,36,38)        -102.0794         estimate D2E/DX2                !
 ! D299  D(10,13,36,24)        -29.5053         estimate D2E/DX2                !
 ! D300  D(10,13,36,25)         17.6773         estimate D2E/DX2                !
 ! D301  D(10,13,36,33)        -27.723          estimate D2E/DX2                !
 ! D302  D(10,13,36,35)       -105.1426         estimate D2E/DX2                !
 ! D303  D(10,13,36,38)       -177.7264         estimate D2E/DX2                !
 ! D304  D(16,13,36,24)        132.5066         estimate D2E/DX2                !
 ! D305  D(16,13,36,25)        179.6891         estimate D2E/DX2                !
 ! D306  D(16,13,36,33)        134.2889         estimate D2E/DX2                !
 ! D307  D(16,13,36,35)         56.8693         estimate D2E/DX2                !
 ! D308  D(16,13,36,38)        -15.7145         estimate D2E/DX2                !
 ! D309  D(18,13,36,24)        179.9457         estimate D2E/DX2                !
 ! D310  D(18,13,36,25)       -132.8717         estimate D2E/DX2                !
 ! D311  D(18,13,36,33)       -178.272          estimate D2E/DX2                !
 ! D312  D(18,13,36,35)        104.3085         estimate D2E/DX2                !
 ! D313  D(18,13,36,38)         31.7246         estimate D2E/DX2                !
 ! D314  D(7,13,39,38)        -168.5309         estimate D2E/DX2                !
 ! D315  D(7,13,39,40)         -18.1452         estimate D2E/DX2                !
 ! D316  D(7,13,39,41)          63.7184         estimate D2E/DX2                !
 ! D317  D(8,13,39,38)          79.8218         estimate D2E/DX2                !
 ! D318  D(8,13,39,40)        -129.7924         estimate D2E/DX2                !
 ! D319  D(8,13,39,41)         -47.9288         estimate D2E/DX2                !
 ! D320  D(10,13,39,38)        -68.8429         estimate D2E/DX2                !
 ! D321  D(10,13,39,40)         81.5429         estimate D2E/DX2                !
 ! D322  D(10,13,39,41)        163.4065         estimate D2E/DX2                !
 ! D323  D(17,13,39,38)          9.1404         estimate D2E/DX2                !
 ! D324  D(17,13,39,40)        159.5262         estimate D2E/DX2                !
 ! D325  D(17,13,39,41)       -118.6102         estimate D2E/DX2                !
 ! D326  D(18,13,39,38)        152.6413         estimate D2E/DX2                !
 ! D327  D(18,13,39,40)        -56.9729         estimate D2E/DX2                !
 ! D328  D(18,13,39,41)         24.8907         estimate D2E/DX2                !
 ! D329  D(12,14,21,1)         -33.8274         estimate D2E/DX2                !
 ! D330  D(12,14,21,5)          22.7001         estimate D2E/DX2                !
 ! D331  D(12,14,21,22)        144.2743         estimate D2E/DX2                !
 ! D332  D(12,14,21,23)        -90.2926         estimate D2E/DX2                !
 ! D333  D(12,15,27,9)          21.6372         estimate D2E/DX2                !
 ! D334  D(12,15,27,11)        -31.2436         estimate D2E/DX2                !
 ! D335  D(12,15,27,26)         77.2366         estimate D2E/DX2                !
 ! D336  D(12,15,27,28)        -97.5704         estimate D2E/DX2                !
 ! D337  D(12,15,27,29)        171.5823         estimate D2E/DX2                !
 ! D338  D(12,15,27,30)        179.5317         estimate D2E/DX2                !
 ! D339  D(39,16,18,7)          81.3899         estimate D2E/DX2                !
 ! D340  D(39,16,18,19)       -102.9235         estimate D2E/DX2                !
 ! D341  D(39,16,18,20)        174.6519         estimate D2E/DX2                !
 ! D342  D(39,16,18,42)        -57.2791         estimate D2E/DX2                !
 ! D343  D(39,16,18,43)        -21.0352         estimate D2E/DX2                !
 ! D344  D(18,16,39,36)       -116.5283         estimate D2E/DX2                !
 ! D345  D(18,16,39,37)        -62.8988         estimate D2E/DX2                !
 ! D346  D(18,16,39,38)       -173.5264         estimate D2E/DX2                !
 ! D347  D(18,16,39,40)         55.7481         estimate D2E/DX2                !
 ! D348  D(18,16,39,41)         91.5508         estimate D2E/DX2                !
 ! D349  D(13,17,24,10)        -13.299          estimate D2E/DX2                !
 ! D350  D(13,17,24,25)         67.5745         estimate D2E/DX2                !
 ! D351  D(13,17,24,26)        -96.7806         estimate D2E/DX2                !
 ! D352  D(13,17,24,28)        -48.0733         estimate D2E/DX2                !
 ! D353  D(13,17,24,30)       -162.0153         estimate D2E/DX2                !
 ! D354  D(13,17,24,32)        173.0055         estimate D2E/DX2                !
 ! D355  D(13,17,24,33)        120.5402         estimate D2E/DX2                !
 ! D356  D(7,18,20,6)           33.3716         estimate D2E/DX2                !
 ! D357  D(13,18,20,6)         -19.34           estimate D2E/DX2                !
 ! D358  D(16,18,20,6)         -79.3317         estimate D2E/DX2                !
 ! D359  D(19,18,20,6)        -158.3591         estimate D2E/DX2                !
 ! D360  D(42,18,20,6)         176.4467         estimate D2E/DX2                !
 ! D361  D(43,18,20,6)         114.963          estimate D2E/DX2                !
 ! D362  D(7,18,42,40)         -55.8606         estimate D2E/DX2                !
 ! D363  D(7,18,42,41)        -104.9741         estimate D2E/DX2                !
 ! D364  D(7,18,42,44)          84.7486         estimate D2E/DX2                !
 ! D365  D(13,18,42,40)         17.339          estimate D2E/DX2                !
 ! D366  D(13,18,42,41)        -31.7745         estimate D2E/DX2                !
 ! D367  D(13,18,42,44)        157.9481         estimate D2E/DX2                !
 ! D368  D(16,18,42,40)         66.9377         estimate D2E/DX2                !
 ! D369  D(16,18,42,41)         17.8243         estimate D2E/DX2                !
 ! D370  D(16,18,42,44)       -152.4531         estimate D2E/DX2                !
 ! D371  D(20,18,42,40)        179.9876         estimate D2E/DX2                !
 ! D372  D(20,18,42,41)        130.8742         estimate D2E/DX2                !
 ! D373  D(20,18,42,44)        -39.4032         estimate D2E/DX2                !
 ! D374  D(10,24,26,9)          10.1634         estimate D2E/DX2                !
 ! D375  D(10,24,26,27)         85.7047         estimate D2E/DX2                !
 ! D376  D(17,24,26,9)          95.7068         estimate D2E/DX2                !
 ! D377  D(17,24,26,27)        171.2481         estimate D2E/DX2                !
 ! D378  D(25,24,26,9)          16.3801         estimate D2E/DX2                !
 ! D379  D(25,24,26,27)         91.9214         estimate D2E/DX2                !
 ! D380  D(28,24,26,9)         -70.9274         estimate D2E/DX2                !
 ! D381  D(28,24,26,27)          4.6139         estimate D2E/DX2                !
 ! D382  D(30,24,26,9)        -122.3925         estimate D2E/DX2                !
 ! D383  D(30,24,26,27)        -46.8512         estimate D2E/DX2                !
 ! D384  D(32,24,26,9)        -173.3454         estimate D2E/DX2                !
 ! D385  D(32,24,26,27)        -97.804          estimate D2E/DX2                !
 ! D386  D(33,24,26,9)         172.8348         estimate D2E/DX2                !
 ! D387  D(33,24,26,27)       -111.6238         estimate D2E/DX2                !
 ! D388  D(36,24,26,9)          87.386          estimate D2E/DX2                !
 ! D389  D(36,24,26,27)        162.9274         estimate D2E/DX2                !
 ! D390  D(10,24,28,27)        -86.2552         estimate D2E/DX2                !
 ! D391  D(17,24,28,27)        -51.2572         estimate D2E/DX2                !
 ! D392  D(25,24,28,27)       -168.6854         estimate D2E/DX2                !
 ! D393  D(26,24,28,27)         -4.3436         estimate D2E/DX2                !
 ! D394  D(32,24,28,27)         86.4683         estimate D2E/DX2                !
 ! D395  D(33,24,28,27)        140.5012         estimate D2E/DX2                !
 ! D396  D(36,24,28,27)       -156.3467         estimate D2E/DX2                !
 ! D397  D(10,24,30,27)        -37.2332         estimate D2E/DX2                !
 ! D398  D(10,24,30,29)        -69.6151         estimate D2E/DX2                !
 ! D399  D(10,24,30,31)         94.9813         estimate D2E/DX2                !
 ! D400  D(17,24,30,27)         99.7829         estimate D2E/DX2                !
 ! D401  D(17,24,30,29)         67.4011         estimate D2E/DX2                !
 ! D402  D(17,24,30,31)       -128.0026         estimate D2E/DX2                !
 ! D403  D(25,24,30,27)       -131.9452         estimate D2E/DX2                !
 ! D404  D(25,24,30,29)       -164.3271         estimate D2E/DX2                !
 ! D405  D(25,24,30,31)          0.2692         estimate D2E/DX2                !
 ! D406  D(26,24,30,27)         37.3075         estimate D2E/DX2                !
 ! D407  D(26,24,30,29)          4.9256         estimate D2E/DX2                !
 ! D408  D(26,24,30,31)        169.522          estimate D2E/DX2                !
 ! D409  D(33,24,30,27)       -177.5578         estimate D2E/DX2                !
 ! D410  D(33,24,30,29)        150.0603         estimate D2E/DX2                !
 ! D411  D(33,24,30,31)        -45.3434         estimate D2E/DX2                !
 ! D412  D(36,24,30,27)        176.6601         estimate D2E/DX2                !
 ! D413  D(36,24,30,29)        144.2782         estimate D2E/DX2                !
 ! D414  D(36,24,30,31)        -51.1254         estimate D2E/DX2                !
 ! D415  D(10,24,33,34)        -92.7475         estimate D2E/DX2                !
 ! D416  D(10,24,33,35)         79.382          estimate D2E/DX2                !
 ! D417  D(17,24,33,34)       -177.0512         estimate D2E/DX2                !
 ! D418  D(17,24,33,35)         -4.9218         estimate D2E/DX2                !
 ! D419  D(26,24,33,34)        111.4251         estimate D2E/DX2                !
 ! D420  D(26,24,33,35)        -76.4455         estimate D2E/DX2                !
 ! D421  D(28,24,33,34)         -0.6492         estimate D2E/DX2                !
 ! D422  D(28,24,33,35)        171.4802         estimate D2E/DX2                !
 ! D423  D(30,24,33,34)         45.1223         estimate D2E/DX2                !
 ! D424  D(30,24,33,35)       -142.7483         estimate D2E/DX2                !
 ! D425  D(10,24,36,13)         30.0286         estimate D2E/DX2                !
 ! D426  D(10,24,36,35)       -175.5627         estimate D2E/DX2                !
 ! D427  D(10,24,36,37)        -14.7394         estimate D2E/DX2                !
 ! D428  D(10,24,36,38)        111.4337         estimate D2E/DX2                !
 ! D429  D(10,24,36,39)         36.5927         estimate D2E/DX2                !
 ! D430  D(26,24,36,13)        -46.3581         estimate D2E/DX2                !
 ! D431  D(26,24,36,35)        108.0506         estimate D2E/DX2                !
 ! D432  D(26,24,36,37)        -91.1261         estimate D2E/DX2                !
 ! D433  D(26,24,36,38)         35.047          estimate D2E/DX2                !
 ! D434  D(26,24,36,39)        -39.794          estimate D2E/DX2                !
 ! D435  D(28,24,36,13)         99.2604         estimate D2E/DX2                !
 ! D436  D(28,24,36,35)       -106.3308         estimate D2E/DX2                !
 ! D437  D(28,24,36,37)         54.4925         estimate D2E/DX2                !
 ! D438  D(28,24,36,38)       -179.3344         estimate D2E/DX2                !
 ! D439  D(28,24,36,39)        105.8246         estimate D2E/DX2                !
 ! D440  D(30,24,36,13)       -175.1055         estimate D2E/DX2                !
 ! D441  D(30,24,36,35)        -20.6968         estimate D2E/DX2                !
 ! D442  D(30,24,36,37)        140.1265         estimate D2E/DX2                !
 ! D443  D(30,24,36,38)        -93.7004         estimate D2E/DX2                !
 ! D444  D(30,24,36,39)       -168.5414         estimate D2E/DX2                !
 ! D445  D(32,24,36,13)       -141.922          estimate D2E/DX2                !
 ! D446  D(32,24,36,35)         12.4868         estimate D2E/DX2                !
 ! D447  D(32,24,36,37)        173.3101         estimate D2E/DX2                !
 ! D448  D(32,24,36,38)        -60.5168         estimate D2E/DX2                !
 ! D449  D(32,24,36,39)       -135.3578         estimate D2E/DX2                !
 ! D450  D(24,25,33,36)        -78.8996         estimate D2E/DX2                !
 ! D451  D(24,26,27,11)        -89.3875         estimate D2E/DX2                !
 ! D452  D(24,26,27,15)        177.6648         estimate D2E/DX2                !
 ! D453  D(24,26,27,28)         -4.8519         estimate D2E/DX2                !
 ! D454  D(24,26,27,29)         92.1812         estimate D2E/DX2                !
 ! D455  D(24,26,27,30)         44.7717         estimate D2E/DX2                !
 ! D456  D(9,27,28,24)          61.4714         estimate D2E/DX2                !
 ! D457  D(11,27,28,24)        112.1797         estimate D2E/DX2                !
 ! D458  D(15,27,28,24)        179.9538         estimate D2E/DX2                !
 ! D459  D(26,27,28,24)          5.0306         estimate D2E/DX2                !
 ! D460  D(29,27,28,24)        -92.1585         estimate D2E/DX2                !
 ! D461  D(9,27,30,24)          -2.5816         estimate D2E/DX2                !
 ! D462  D(9,27,30,31)        -133.7151         estimate D2E/DX2                !
 ! D463  D(9,27,30,32)          40.313          estimate D2E/DX2                !
 ! D464  D(11,27,30,24)         69.9349         estimate D2E/DX2                !
 ! D465  D(11,27,30,31)        -61.1986         estimate D2E/DX2                !
 ! D466  D(11,27,30,32)        112.8295         estimate D2E/DX2                !
 ! D467  D(15,27,30,24)       -153.7389         estimate D2E/DX2                !
 ! D468  D(15,27,30,31)         75.1277         estimate D2E/DX2                !
 ! D469  D(15,27,30,32)       -110.8442         estimate D2E/DX2                !
 ! D470  D(26,27,30,24)        -43.2122         estimate D2E/DX2                !
 ! D471  D(26,27,30,31)       -174.3457         estimate D2E/DX2                !
 ! D472  D(26,27,30,32)         -0.3176         estimate D2E/DX2                !
 ! D473  D(24,30,31,45)          6.132          estimate D2E/DX2                !
 ! D474  D(27,30,31,45)        110.0196         estimate D2E/DX2                !
 ! D475  D(28,30,31,45)         60.7535         estimate D2E/DX2                !
 ! D476  D(29,30,31,45)        170.9893         estimate D2E/DX2                !
 ! D477  D(32,30,31,45)        -63.8814         estimate D2E/DX2                !
 ! D478  D(27,30,32,33)       -109.1726         estimate D2E/DX2                !
 ! D479  D(28,30,32,33)        -50.8483         estimate D2E/DX2                !
 ! D480  D(29,30,32,33)       -168.0297         estimate D2E/DX2                !
 ! D481  D(31,30,32,33)         66.1817         estimate D2E/DX2                !
 ! D482  D(30,31,45,34)         52.5815         estimate D2E/DX2                !
 ! D483  D(30,31,45,46)        -68.22           estimate D2E/DX2                !
 ! D484  D(30,31,45,47)        171.7108         estimate D2E/DX2                !
 ! D485  D(30,32,33,25)         54.3373         estimate D2E/DX2                !
 ! D486  D(30,32,33,34)        -66.6452         estimate D2E/DX2                !
 ! D487  D(30,32,33,35)        168.1169         estimate D2E/DX2                !
 ! D488  D(30,32,33,36)        110.4749         estimate D2E/DX2                !
 ! D489  D(24,33,34,45)         -5.7561         estimate D2E/DX2                !
[...]
 00001405,0.00002449,0.00000389,0.00011108,-0.00006616,0.00005370,0.000
 01403,-0.00005311,-0.00002852,-0.00000677,0.00002895,0.00022961,-0.000
 03462,0.00034349,-0.00015897,-0.00000547,0.00004885,-0.00006182,-0.000
 10809,0.00005850,-0.00012802,-0.00012622,-0.00004401,-0.00007631,-0.00
 005002,0.00003873,-0.00004782,0.00000908,-0.00000293,-0.00000875,0.000
 05558,0.00006187,0.00035838,0.00041178,-0.00019136,-0.00000821,0.00000
 031,-0.00002408,-0.00003241,-0.00000163,-0.00000995,-0.00012661,0.0000
 0195,-0.00010619,-0.00002593,-0.00006605,0.00001590,-0.00678473,0.0017
 9892,-0.00323991,0.00006304,0.00065499,-0.00107590,0.00058691,-0.00013
 021,-0.00044207,0.00016085,-0.00020787,0.00008067,-0.00008587,0.000177
 20,-0.00005163,0.00000359,0.00000420,-0.00003435,-0.00014091,0.0001248
 9,-0.00008368,0.00003894,0.00006495,-0.00005007,0.00006677,-0.00000807
 ,-0.00001429,0.00001439,0.00003296,0.00007610,0.00001368,0.00001647,-0
 .00000521,-0.00002716,-0.00000190,-0.00004632,0.00006739,-0.00001398,-
 0.00000483,0.00000145,-0.00004666,0.00007547,0.00000346,-0.00001408,0.
 00001180,0.00007204,0.00006532,-0.00016574,-0.00018409,0.00000150,0.00
 010955,0.00009914,-0.00000943,-0.00001717,0.00009793,-0.00035530,0.000
 10602,-0.00009650,0.00014470,-0.00009527,-0.00004971,-0.00073421,-0.00
 004030,-0.00019381,0.00045128,-0.00051397,0.00050291,0.00027088,0.0001
 9935,-0.00385686,0.00012011,-0.00153474,-0.07889419,-0.04981023,-0.019
 25032,0.00270127,0.00325842,0.00132656,0.08593318,0.04396828,-0.000082
 05,-0.00000099,-0.00009592,0.00001831,0.00000192,0.00000565,-0.0000142
 5,0.00003354,-0.00000423,0.00003418,0.00001771,-0.00007151,-0.00002766
 ,-0.00000357,0.00002493,0.00049908,0.00018304,0.00002433,-0.00032283,0
 .00018487,-0.00001655,0.00000527,-0.00007961,0.00002043,-0.00027400,-0
 .00015673,-0.00001147,-0.00005142,-0.00000852,-0.00000293,-0.00003182,
 0.00001163,-0.00002444,0.00001762,0.00006433,0.00004691,-0.00022815,-0
 .00062679,0.00018245,-0.00001438,-0.00001325,-0.00001332,-0.00001397,-
 0.00002960,0.00003099,0.00035071,0.00036390,0.00067122,-0.00000607,0.0
 0006930,-0.00007565,0.00258225,-0.00066473,0.00064404,-0.01068236,-0.0
 0285219,-0.00538487,-0.00012826,0.00025600,-0.00056266,0.00013511,-0.0
 0012879,0.00005259,-0.00005501,0.00011365,-0.00003342,-0.00000252,0.00
 001156,-0.00002914,0.00009087,-0.00001134,0.00001828,0.00003504,-0.000
 02048,0.00002337,0.00006713,-0.00000602,-0.00001646,-0.00003966,0.0001
 0967,0.00001493,-0.00000679,0.00002940,-0.00001898,-0.00001329,-0.0000
 1295,-0.00000965,0.00006383,-0.00004478,-0.00004981,0.00000023,-0.0000
 2344,0.00007912,-0.00002062,-0.00001101,0.00002319,-0.00003805,0.00000
 842,-0.00005182,-0.00005950,-0.00001093,0.00002841,0.00002755,-0.00000
 526,0.00001083,-0.00016568,0.00028600,0.00001553,0.00017196,-0.0001599
 1,0.00008769,0.00020175,0.00015701,-0.00007004,-0.00312864,-0.00121406
 ,0.00052604,0.00028722,0.00042942,0.00088731,0.00131044,-0.00126431,-0
 .00002030,-0.05045813,-0.02255608,-0.02911894,-0.00136215,0.00290708,0
 .00121429,0.06134514,0.02467394,0.03106777,0.00025786,0.00003392,-0.00
 209943,0.00053392,0.00052119,-0.00021506,-0.00029215,0.00027279,0.0000
 2049,-0.00010799,-0.00011020,0.00017694,-0.00037507,-0.00024514,0.0003
 0374,0.00079664,-0.00015151,0.00051387,0.00014491,0.00059143,-0.000415
 62,-0.00006334,-0.00022660,0.00014289,-0.00228637,-0.00179423,0.000373
 62,0.00030934,0.00032563,-0.00028758,-0.00092425,-0.00066527,-0.000368
 80,0.00084530,0.00178247,0.00014638,0.00045497,0.00148966,-0.00080564,
 -0.00009449,-0.00024742,-0.00003815,0.00024435,-0.00002358,0.00030293,
 0.00015151,-0.00023023,0.00016247,0.00054946,-0.00022389,0.00091358,0.
 00050118,0.00022983,0.00042701,-0.00014201,0.00006510,-0.00015327,-0.0
 0066250,0.00021751,-0.00001848,0.00050895,0.00016117,0.00030977,-0.000
 03316,0.00000385,-0.00001496,0.00018087,-0.00008622,0.00003100,-0.0073
 6389,0.00001692,-0.00064303,-0.00097640,-0.00076163,-0.00097465,0.0004
 1471,0.00029546,-0.00034954,0.00243628,-0.00190902,0.00279261,-0.00005
 099,0.00070481,0.00159782,-0.00105878,-0.00025381,-0.00054199,0.011205
 99,0.00432282,-0.00966183,-0.04033063,-0.00533631,-0.02859042,-0.00066
 043,0.00041286,-0.00091841,-0.01821230,-0.00830068,0.02110033,-0.05306
 079,0.03949436,-0.01245912,-0.00096334,-0.00171507,0.00064474,0.009728
 52,0.00433555,-0.00265997,-0.00071156,0.00021044,-0.00017388,-0.001616
 65,-0.00052247,0.00058308,-0.00235647,-0.00148020,0.00040463,0.0000641
 2,-0.00001224,0.00015332,0.00011833,0.00010332,-0.00006140,-0.00014230
 ,-0.00019630,-0.00005526,-0.00027245,-0.00023947,-0.00002211,0.0001935
 5,0.00011425,0.00001647,0.24494407,-0.00006387,-0.00004466,0.00101660,
 -0.00022643,-0.00034250,0.00008640,0.00010484,-0.00012820,0.00002045,-
 0.00003831,0.00004906,-0.00006146,0.00017257,0.00012559,-0.00009993,-0
 .00040785,0.00002463,-0.00028934,-0.00012508,-0.00031565,0.00015187,0.
 00000431,0.00011141,-0.00007671,0.00145650,0.00085567,-0.00062253,-0.0
 0049821,-0.00024156,0.00022974,0.00028403,0.00018836,0.00032906,-0.000
 66480,-0.00089914,0.00018303,-0.00030013,-0.00083087,0.00031980,0.0000
 3302,0.00012392,-0.00000214,-0.00021098,-0.00007030,-0.00027754,-0.000
 08355,0.00008224,-0.00009125,-0.00003057,-0.00000014,-0.00085790,-0.00
 016222,-0.00012028,-0.00021213,0.00006456,-0.00004256,0.00004204,0.000
 34202,-0.00010205,0.00004777,-0.00024854,-0.00016875,-0.00010555,-0.00
 001227,0.00004670,-0.00000979,-0.00007752,0.00004344,-0.00003991,0.002
 65353,-0.00071299,0.00011130,-0.00236788,-0.00158872,0.00078557,0.0002
 3916,-0.00001597,0.00006849,-0.00042109,0.00024531,-0.00064856,-0.0010
 3471,-0.00288213,0.00168290,-0.00054969,-0.00091623,-0.00016434,0.0022
 2296,0.00336678,0.00279032,-0.00241892,-0.01548313,0.00101030,-0.00092
 375,-0.00078634,0.00087212,0.00890515,0.01038492,-0.01126481,0.0264991
 7,-0.04315007,0.00713556,0.00059325,0.00025729,-0.00011806,-0.00413476
 ,-0.00224759,0.00128697,0.00024192,-0.00013581,0.00009238,0.00057908,0
 .00025392,-0.00038457,0.00099938,0.00071067,0.00001719,-0.00003644,0.0
 0001040,-0.00003748,-0.00004819,-0.00003136,0.00002586,0.00000170,0.00
 010388,0.00005291,0.00014173,0.00010245,-0.00000403,-0.00006185,-0.000
 03919,0.00000522,0.08587736,0.34308493,0.00025240,-0.00011626,-0.00066
 667,0.00015683,0.00023386,-0.00009274,-0.00009314,0.00003631,0.0000012
 9,0.00008024,-0.00015533,0.00019094,-0.00012467,-0.00013490,0.00014103
 ,0.00042378,0.00034136,-0.00012343,0.00005645,0.00016876,-0.00007603,0
 .00007630,-0.00004963,0.00004402,-0.00121969,-0.00042504,0.00025866,-0
 .00021602,-0.00032122,-0.00030485,-0.00007230,-0.00035402,0.00001817,0
 .00042457,0.00086195,-0.00059583,0.00027019,0.00025152,-0.00016093,-0.
 00005746,-0.00013650,0.00005143,0.00038920,0.00089854,0.00018496,0.000
 07957,-0.00009688,0.00010152,0.00030018,0.00016430,0.00040419,0.000055
 27,0.00020448,0.00027357,-0.00007048,0.00006535,-0.00000697,-0.0003087
 5,0.00004949,-0.00013537,0.00012602,0.00043492,-0.00003198,0.00013871,
 -0.00029651,0.00009148,0.00005667,-0.00003575,0.00006456,-0.00407070,0
 .00054968,-0.00239038,0.00116288,-0.00116587,0.00023845,0.00044502,-0.
 00026269,-0.00025470,-0.00076117,-0.00407802,0.00240912,-0.00087151,0.
 00071533,0.00033582,0.00115094,0.00042070,0.00045461,0.01352948,0.0077
 2748,-0.02103229,-0.05138154,-0.00149480,-0.07746292,0.00009947,0.0002
 0941,-0.00087565,0.00120948,-0.00139521,0.00268728,0.00774816,-0.00247
 701,-0.01536321,-0.00107960,-0.00027105,-0.00017930,0.00375383,0.00109
 496,-0.00014478,-0.00040485,0.00011835,-0.00016159,-0.00051548,0.00011
 512,0.00055157,-0.00058042,-0.00072426,-0.00020328,-0.00003908,-0.0000
 3955,0.00000757,-0.00007395,0.00005764,0.00003331,0.00021237,0.0000667
 8,-0.00006142,-0.00018211,-0.00011115,-0.00007388,-0.00017814,-0.00007
 759,-0.00007527,-0.06759678,0.00200265,0.30070777,-0.00010110,0.000027
 19,0.00035191,-0.00012852,-0.00009379,0.00005611,0.00006852,-0.0000341
 6,-0.00001971,0.00007456,0.00000370,-0.00003532,0.00005287,0.00004097,
 -0.00005598,-0.00011084,0.00002537,-0.00002066,-0.00000534,-0.00005938
 ,0.00005639,-0.00000123,0.00003230,-0.00000673,0.00038887,0.00028507,0
 .00010855,0.00005159,-0.00004251,-0.00009246,0.00015384,0.00012887,-0.
 00006536,-0.00004841,-0.00018116,-0.00014893,0.00017024,-0.00004366,0.
 00011717,0.00000429,0.00003410,0.00000223,-0.00004848,0.00002581,-0.00
 004633,-0.00002101,0.00002886,-0.00000942,-0.00008428,0.00006644,-0.00
 001077,-0.00010540,-0.00003069,-0.00005092,0.00001432,0.00000024,0.000
 00272,0.00009906,-0.00002706,-0.00002858,0.00000756,-0.00009661,-0.000
 03759,-0.00002619,0.00006961,-0.00001733,-0.00005443,0.00002010,-0.000
 01286,0.00008315,-0.00007349,-0.00020368,0.00054836,0.00087483,0.00027
 671,-0.00010534,0.00001682,0.00003261,-0.00022995,-0.00029806,-0.00008
 155,0.00005523,0.00007726,0.00024043,0.00013388,0.00007484,0.00019848,
 -0.00181825,-0.00009733,0.00172845,-0.00150338,-0.00274896,-0.00483171
 ,0.00049392,-0.00018195,0.00003577,0.00010251,-0.00044563,0.00045930,0
 .00521766,0.00362134,0.00171280,0.00007392,0.00032631,-0.00026720,-0.0
 0120630,0.00002259,0.00006489,0.00003727,-0.00004550,0.00007534,0.0002
 4796,0.00000635,0.00014207,0.00013936,0.00011016,-0.00025798,0.0000208
 5,0.00001358,-0.00000904,-0.00000188,-0.00002935,0.00000608,-0.0000557
 0,-0.00001657,0.00001279,0.00004522,0.00003009,0.00001442,0.00004531,0
 .00001810,0.00001753,-0.03004388,-0.05343263,-0.01189900,0.03015221,-0
 .00007733,0.00002814,0.00022628,-0.00010138,-0.00001675,0.00005923,0.0
 0006624,-0.00000596,-0.00005978,0.00009202,-0.00001415,0.00001146,0.00
 001870,0.00004322,-0.00006849,-0.00007079,0.00003157,0.00004336,0.0000
 2815,0.00004157,0.00001491,0.00001289,-0.00002307,0.00003261,0.0001614
 2,0.00035957,0.00012847,0.00024863,0.00000292,-0.00021935,0.00009402,0
 .00017947,-0.00015227,0.00023227,-0.00013655,-0.00019683,0.00005792,0.
 00013839,0.00003174,-0.00000187,0.00000528,-0.00000043,-0.00013109,-0.
 00015431,0.00004451,0.00001374,0.00000043,0.00003506,-0.00002249,0.000
 18831,0.00027181,-0.00003700,0.00005684,-0.00000125,-0.00002499,0.0000
 1795,-0.00000847,0.00004084,0.00000417,-0.00007556,0.00009650,-0.00012
 633,0.00000166,-0.00005208,0.00012211,-0.00003354,-0.00005717,0.000017
 05,-0.00001158,0.00028054,-0.00050313,-0.00026746,0.00059658,0.0006122
 8,0.00029773,-0.00025665,-0.00008903,-0.00000434,-0.00031522,-0.000222
 75,0.00034265,0.00013569,0.00013273,0.00016176,0.00030604,0.00024641,-
 0.00014985,-0.00299948,-0.00063070,0.00190162,-0.00346806,0.00429114,-
 0.01163538,0.00064510,0.00012524,-0.00058267,-0.00223114,-0.00291763,0
 .00193590,0.00959533,-0.00513716,-0.00245764,-0.00014698,0.00004825,0.
 00005710,0.00041725,0.00054385,-0.00003442,0.00007647,-0.00001954,-0.0
 0004610,-0.00013797,-0.00009127,0.00016925,-0.00009336,-0.00000285,-0.
 00026285,0.00001487,0.00001242,0.00000583,0.00002185,-0.00002545,-0.00
 000997,-0.00012142,-0.00007943,-0.00002571,0.00002367,0.00002278,0.000
 03139,0.00011937,0.00006074,0.00002938,-0.05281905,-0.22657544,-0.0684
 9130,0.05947373,0.23644859,-0.00001033,0.00001675,0.00022384,-0.000030
 30,-0.00008556,0.00003528,0.00001529,-0.00000845,-0.00000673,0.0000321
 4,0.00001384,-0.00005882,0.00004438,-0.00000510,-0.00001945,-0.0000729
 1,-0.00001317,0.00000356,-0.00000178,-0.00002850,0.00001549,-0.0000063
 6,0.00001547,-0.00001802,0.00028810,0.00013177,0.00001663,-0.00001352,
 -0.00002460,0.00010224,0.00006784,0.00019848,-0.00006635,-0.00020875,-
 0.00003901,0.00009785,0.00000707,-0.00007319,0.00006380,0.00000500,0.0
 0003680,0.00000893,0.00013106,-0.00006477,0.00000508,-0.00001071,0.000
 00881,-0.00000837,0.00002125,-0.00010626,-0.00003952,-0.00002015,-0.00
 001190,-0.00001152,-0.00000209,0.00000005,0.00000359,0.00004839,-0.000
 00443,-0.00000283,-0.00001416,-0.00003740,-0.00005831,-0.00000737,0.00
 002074,-0.00000422,-0.00003790,0.00001516,-0.00001158,0.00036522,0.000
 49989,-0.00020334,0.00017979,-0.00017985,-0.00053322,-0.00003338,-0.00
 003816,0.00011162,-0.00050088,-0.00011494,-0.00038996,0.00016163,0.000
 04707,-0.00118270,-0.00024985,-0.00008062,0.00011712,-0.00032609,-0.00
 043790,0.00069187,-0.00139454,-0.00465991,-0.00253656,0.00023190,-0.00
 007439,0.00011896,-0.00005390,-0.00013284,-0.00019173,0.00194571,-0.00
 061549,0.00035181,0.00016827,-0.00002468,-0.00001986,0.00007569,-0.000
 07723,0.00008061,0.00006243,0.00003738,0.00000941,-0.00005889,-0.00004
 266,-0.00006678,0.00000275,0.00007729,0.00000730,-0.00000881,-0.000002
 15,-0.00001033,0.00000397,-0.00000487,-0.00000135,-0.00001357,0.000002
 61,-0.00000191,0.00002092,0.00001925,0.00000801,0.00000642,0.00000250,
 0.00000234,-0.01142183,-0.06946555,-0.04641778,0.01446709,0.06799522,0
 .03891074,0.00006911,-0.00002315,-0.00009109,0.00002337,0.00004753,-0.
 00001381,-0.00002708,-0.00002493,0.00004042,-0.00002469,0.00000636,0.0
 0000377,-0.00000387,-0.00003419,-0.00001196,0.00005247,0.00007424,-0.0
 0010715,0.00001114,-0.00006017,0.00003252,0.00001842,0.00002113,-0.000
 01403,-0.00019445,-0.00011842,0.00003908,-0.00005423,0.00000563,0.0000
 0440,0.00001605,-0.00003235,-0.00006475,0.00008286,0.00015317,-0.00001
 429,-0.00004636,-0.00013396,0.00008822,0.00000939,-0.00002839,0.000031
 75,0.00016937,-0.00005916,0.00016980,-0.00002092,0.00002700,-0.0000271
 5,-0.00002288,0.00005752,-0.00004968,-0.00009119,-0.00001324,-0.000027
 98,0.00003841,-0.00000682,0.00006074,-0.00000838,-0.00003757,0.0000370
 9,-0.00012589,0.00024716,-0.00004971,0.00009562,-0.00019797,0.00005917
 ,0.00003496,-0.00001872,0.00003598,0.00047425,0.00016654,-0.00003932,0
 .00025432,0.00024651,-0.00022759,0.00000182,-0.00002347,-0.00000390,-0
 .00038974,0.00046690,-0.00019641,-0.00001798,0.00022704,0.00009093,0.0
 0010083,-0.00002011,0.00010945,0.00082074,-0.00083025,-0.00083035,0.00
 679984,0.00295947,0.00363024,-0.00007795,0.00012391,0.00009417,0.00055
 192,0.00006091,0.00001653,-0.00579908,-0.00016250,0.00269128,-0.000102
 27,0.00012367,0.00013681,-0.00108504,-0.00025779,0.00023873,0.00017049
 ,-0.00002589,-0.00006465,0.00011244,0.00005872,-0.00007002,0.00029760,
 0.00015302,0.00006989,-0.00002529,-0.00001853,-0.00006798,-0.00004851,
 -0.00001061,0.00002634,0.00021318,0.00009793,-0.00000083,-0.00001970,0
 .00000958,-0.00002742,-0.00018839,-0.00009610,-0.00005044,-0.11178263,
 -0.06283605,0.10959885,-0.00278264,-0.00970430,-0.00385422,0.11252056,
 0.00007290,-0.00000734,-0.00025378,0.00006767,0.00007625,-0.00003193,-
 0.00004867,0.00000307,0.00003763,-0.00002188,0.00000143,-0.00000066,-0
 .00003483,-0.00005324,0.00001240,0.00011388,0.00004753,-0.00003220,0.0
 0002301,0.00000115,-0.00000688,0.00001434,-0.00000061,-0.00000070,-0.0
 0040858,-0.00027883,0.00015660,0.00000834,0.00000647,-0.00004398,-0.00
 006903,-0.00004710,-0.00018493,0.00011846,0.00032894,0.00001429,-0.000
 00422,-0.00003528,-0.00000742,-0.00000095,-0.00004082,0.00002572,0.000
 14137,-0.00005955,0.00014267,-0.00000099,0.00000505,-0.00000496,0.0000
 1525,0.00000316,0.00005828,-0.00002385,0.00000564,0.00002315,0.0000165
 0,0.00000123,0.00003409,-0.00006427,-0.00001170,0.00002089,-0.00006168
 ,0.00022682,-0.00001940,0.00007750,-0.00016820,0.00004854,0.00004416,-
 0.00002188,0.00002999,0.00007055,0.00034121,-0.00024008,-0.00002271,0.
 00022675,0.00016585,0.00000296,0.00001519,-0.00000937,0.00027817,0.000
 10507,-0.00001973,0.00035236,0.00041582,-0.00031209,-0.00007441,0.0001
 7362,0.00034355,-0.00096901,-0.00011243,0.00058885,0.00358606,-0.00047
 116,0.00305914,0.00004611,0.00013325,0.00000056,0.00022057,-0.00029242
 ,-0.00021335,-0.00134226,0.00527000,-0.00318890,-0.00001288,0.00000453
 ,0.00016909,-0.00013245,-0.00006610,-0.00002114,0.00005607,-0.00001269
 ,-0.00002305,-0.00000504,0.00007216,-0.00006571,0.00010321,0.00002192,
 0.00006944,-0.00001782,-0.00001542,-0.00004256,-0.00002976,0.00000179,
 0.00001857,0.00016454,0.00006903,-0.00000526,-0.00003935,-0.00001400,-
 0.00002580,-0.00014177,-0.00007047,-0.00004165,-0.06403217,-0.06229994
 ,0.06592162,-0.00747612,-0.00700994,0.00731448,0.06944073,0.06353203,-
 0.00010986,0.00002898,0.00022195,-0.00006005,-0.00008004,0.00002280,0.
 00004901,0.00001029,-0.00004798,0.00003169,-0.00000305,-0.00001979,0.0
 0003105,0.00004699,0.00000140,-0.00010931,-0.00008449,0.00009413,-0.00
 001417,0.00002276,-0.00001009,-0.00002764,-0.00000908,0.00001021,0.000
 38910,0.00020265,-0.00007025,0.00003038,0.00004642,-0.00003230,0.00006
 000,0.00000610,0.00018712,-0.00012663,-0.00026888,-0.00000760,-0.00001
 858,0.00007839,-0.00003307,-0.00000376,0.00005429,-0.00004021,-0.00008
 000,0.00013775,-0.00013218,0.00000379,-0.00001352,0.00000345,0.0000094
 3,0.00000049,-0.00001553,0.00006138,-0.00001381,-0.00001726,-0.0000215
 7,-0.00000629,-0.00004982,0.00005426,0.00002353,-0.00001952,0.00010225
 ,-0.00028539,0.00003112,-0.00010084,0.00021592,-0.00006326,-0.00004959
 ,0.00002629,-0.00003929,0.00011357,-0.00028910,0.00021482,-0.00022078,
 0.00004753,0.00004586,-0.00011496,0.00002051,0.00000298,-0.00006246,-0
 .00018737,-0.00017974,-0.00016704,0.00001668,0.00038408,-0.00015272,-0
 .00003604,-0.00020411,-0.00004008,-0.00026768,0.00013681,0.00060816,0.
 00272773,-0.00746188,0.00006589,-0.00005534,-0.00003384,-0.00016420,-0
 .00005721,0.00075493,0.00402063,-0.00381900,0.00027338,0.00012390,-0.0
 0004188,0.00008818,-0.00009971,-0.00013363,-0.00024481,-0.00008730,-0.
 00000605,0.00004548,0.00001811,-0.00004759,-0.00000162,-0.00009258,-0.
 00001864,-0.00003141,0.00002659,0.00002088,0.00006198,0.00004884,0.000
 00554,-0.00002830,-0.00021381,-0.00009048,0.00000863,0.00004468,0.0000
 0698,0.00003360,0.00018766,0.00009439,0.00005476,0.10942949,0.06446709
 ,-0.14236006,-0.00197075,0.01096629,0.01087511,-0.11140144,-0.07345988
 ,0.13759114\\0.00000143,0.00000206,0.00003859,-0.00000568,0.00000088,-
 0.00000776,-0.00000462,-0.00000125,-0.00000655,0.00000591,0.00000652,-
 0.00000479,0.00000363,-0.00000052,-0.00000568,0.00000572,-0.00000472,-
 0.00001995,-0.00000698,-0.00001292,-0.00001435,-0.00000520,-0.00000155
 ,-0.00000132,0.00002307,-0.00000454,0.00000527,-0.00001039,-0.00000616
 ,0.00000335,0.00000613,0.00000614,-0.00000076,-0.00002307,-0.00001380,
 -0.00000183,0.00000506,0.00002499,0.00000505,0.00000031,0.00000449,-0.
 00000379,0.00000942,-0.00000560,-0.00001296,0.00000233,-0.00000211,0.0
 0001256,-0.00000836,0.00000870,0.00000191,0.00005813,0.00001281,-0.000
 00205,-0.00000981,0.00000030,-0.00000991,-0.00001541,0.00001536,0.0000
 0800,0.00000283,0.00000064,-0.00000634,-0.00000224,-0.00000333,-0.0000
 0322,-0.00000543,-0.00000844,-0.00000676,0.,-0.00003456,-0.00001333,0.
 00000076,0.00000289,0.00000063,-0.00000106,0.00001023,-0.00001756,0.00
 003515,-0.00000520,0.00002558,-0.00000122,0.00000138,0.00000597,-0.000
 00280,0.00000608,0.00000453,-0.00003272,-0.00000757,0.00002996,-0.0000
 0684,-0.00000329,-0.00000912,0.00000884,0.00001442,-0.00002021,-0.0000
 0885,0.00000017,0.00000673,-0.00001220,0.00000491,0.00001474,-0.000005
 43,0.00000323,0.00000091,0.00001066,0.00000131,-0.00002062,0.00000382,
 -0.00000763,0.00000401,0.00000197,0.00000414,0.00001248,-0.00001455,0.
 00000355,-0.00000235,0.00000589,-0.00000125,-0.00000066,0.00000376,-0.
 00000310,-0.00000213,-0.00001745,-0.00004360,0.00001852,-0.00000380,0.
 00000054,-0.00000260,-0.00000462,0.00002315,-0.00001406,0.00000866,0.0
 0001044,-0.00000063,0.00000244,0.00000443,0.00000803,0.00000282,-0.000
 00265,0.00000448\\\@
 The archive entry for this job was punched.


 THE TRULY SUCCESSFUL PERFORMANCE OF RESEARCHES IN
 INORGANIC CHEMISTRY IS POSSIBLE ONLY TO ONE WHO IS NOT
 ONLY A THEORETICAL CHEMIST, BUT ALSO AN ACCOMPLISHED
 ANALYST AND, MOREOVER, NOT MERELY A PRACTICALLY TRAINED,
 MECHANICAL WORKER, BUT A THINKING CREATIVE ARTIST.
   --  CLEMENS WINKLER, BER. 33, 1697(1900)
 Job cpu time:       2 days  4 hours 50 minutes 42.9 seconds.
 Elapsed time:       0 days  1 hours  9 minutes 10.9 seconds.
 File lengths (MBytes):  RWF=   5943 Int=      0 D2E=      0 Chk=     77 Scr=      2
 Normal termination of Gaussian 16 at Wed Jun 21 03:59:30 2023.
