 Entering Gaussian System, Link 0=/apps/GAU16/avx2/g16/g16
 Initial command:
 /apps/GAU16/avx2//g16/l1.exe "/localscratch/chegho/Gau-81382.inp" -scrdir="/localscratch/chegho/"
 Entering Link 1 = /apps/GAU16/avx2//g16/l1.exe PID=     81383.
  
 Copyright (c) 1988-2019, Gaussian, Inc.  All Rights Reserved.
  
 This is part of the Gaussian(R) 16 program.  It is based on
 the Gaussian(R) 09 system (copyright 2009, Gaussian, Inc.),
 the Gaussian(R) 03 system (copyright 2003, Gaussian, Inc.),
 the Gaussian(R) 98 system (copyright 1998, Gaussian, Inc.),
 the Gaussian(R) 94 system (copyright 1995, Gaussian, Inc.),
 the Gaussian 92(TM) system (copyright 1992, Gaussian, Inc.),
 the Gaussian 90(TM) system (copyright 1990, Gaussian, Inc.),
 the Gaussian 88(TM) system (copyright 1988, Gaussian, Inc.),
 the Gaussian 86(TM) system (copyright 1986, Carnegie Mellon
 University), and the Gaussian 82(TM) system (copyright 1983,
 Carnegie Mellon University). Gaussian is a federally registered
 trademark of Gaussian, Inc.
  
 This software contains proprietary and confidential information,
 including trade secrets, belonging to Gaussian, Inc.
  
 This software is provided under written license and may be
 used, copied, transmitted, or stored only in accord with that
 written license.
  
 The following legend is applicable only to US Government
 contracts under FAR:
  
                    RESTRICTED RIGHTS LEGEND
  
 Use, reproduction and disclosure by the US Government is
 subject to restrictions as set forth in subparagraphs (a)
 and (c) of the Commercial Computer Software - Restricted
 Rights clause in FAR 52.227-19.
  
 Gaussian, Inc.
 340 Quinnipiac St., Bldg. 40, Wallingford CT 06492
  
  
 ---------------------------------------------------------------
 Warning -- This program may not be used in any manner that
 competes with the business of Gaussian, Inc. or will provide
 assistance to any competitor of Gaussian, Inc.  The licensee
 of this program is prohibited from giving any competitor of
 Gaussian, Inc. access to this program.  By using this program,
 the user acknowledges that Gaussian, Inc. is engaged in the
 business of creating and licensing software in the field of
 computational chemistry and represents and warrants to the
 licensee that it is not a competitor of Gaussian, Inc. and that
 it will not use this program in any manner prohibited above.
 ---------------------------------------------------------------
  

 Cite this work as:
 Gaussian 16, Revision C.01,
 M. J. Frisch, G. W. Trucks, H. B. Schlegel, G. E. Scuseria, 
 M. A. Robb, J. R. Cheeseman, G. Scalmani, V. Barone, 
 G. A. Petersson, H. Nakatsuji, X. Li, M. Caricato, A. V. Marenich, 
 J. Bloino, B. G. Janesko, R. Gomperts, B. Mennucci, H. P. Hratchian, 
 J. V. Ortiz, A. F. Izmaylov, J. L. Sonnenberg, D. Williams-Young, 
 F. Ding, F. Lipparini, F. Egidi, J. Goings, B. Peng, A. Petrone, 
 T. Henderson, D. Ranasinghe, V. G. Zakrzewski, J. Gao, N. Rega, 
 G. Zheng, W. Liang, M. Hada, M. Ehara, K. Toyota, R. Fukuda, 
 J. Hasegawa, M. Ishida, T. Nakajima, Y. Honda, O. Kitao, H. Nakai, 
 T. Vreven, K. Throssell, J. A. Montgomery, Jr., J. E. Peralta, 
 F. Ogliaro, M. J. Bearpark, J. J. Heyd, E. N. Brothers, K. N. Kudin, 
 V. N. Staroverov, T. A. Keith, R. Kobayashi, J. Normand, 
 K. Raghavachari, A. P. Rendell, J. C. Burant, S. S. Iyengar, 
 J. Tomasi, M. Cossi, J. M. Millam, M. Klene, C. Adamo, R. Cammi, 
 J. W. Ochterski, R. L. Martin, K. Morokuma, O. Farkas, 
 J. B. Foresman, and D. J. Fox, Gaussian, Inc., Wallingford CT, 2019.
 
 ******************************************
 Gaussian 16:  ES64L-G16RevC.01  3-Jul-2019
                28-Dec-2022 
 ******************************************
 %nprocshared=48
 Will use up to   48 processors via shared memory.
 %chk=Mo15_S2_ts.chk
 %mem=150GB
 ----------------------------------------------------------------------
 # opt=(calcfc,ts,noeigen) freq b3lyp/gen nosymm pseudo=read scf=maxcyc
 les=1000
 ----------------------------------------------------------------------
 1/5=1,10=4,11=1,18=20,26=3,38=1/1,3;
 2/9=110,12=2,15=1,17=6,18=5,40=1/2;
 3/5=7,11=2,16=1,17=8,25=1,30=1,71=2,74=-5,140=1/1,2,3;
 4//1;
 5/5=2,7=1000,38=5/2;
 8/6=4,10=90,11=11/1;
 11/6=1,8=1,9=11,15=111,16=1,31=1/1,2,10;
 10/6=1,13=1,31=1/2;
 6/7=2,8=2,9=2,10=2,28=1/1;
 7/10=1,25=1,30=1/1,2,3,16;
 1/5=1,10=4,11=1,18=20,26=3/3(2);
 2/9=110,15=1/2;
 99//99;
 2/9=110,15=1/2;
 3/5=7,6=1,11=2,16=1,17=8,25=1,30=1,71=1,74=-5,82=7/1,2,3;
 4/5=5,16=3,69=1/1;
 5/5=2,7=1000,38=5/2;
 7/30=1/1,2,3,16;
 1/5=1,11=1,18=20,26=3/3(-5);
 2/9=110,15=1/2;
 6/7=2,8=2,9=2,10=2,19=2,28=1/1;
 99/9=1/99;
 -------------------
 Title Card Required
 -------------------
 Symbolic Z-matrix:
 Charge =  0 Multiplicity = 1
 42                    0.7348    1.38338   12.14822 
 16                    1.58351   3.52748   12.60581 
 16                   -1.51871   1.49118   12.88145 
 16                    0.2637    1.13523   9.80045 
 16                    2.75695  -0.00135   11.38955 
 42                   -1.59366   2.30715   10.71306 
 16                   -2.24145   2.1491    8.32127 
 16                   -0.97706   4.44518   10.80039 
 42                    1.29146   3.32666   10.18732 
 16                    0.54224   3.8036    7.82374 
 16                    3.33675   2.39786   9.15432 
 42                    3.38498   2.4133    11.53185 
 42                   -1.81187   4.59219   8.28773 
 16                    4.43597   1.89605   13.84747 
 16                    4.93754   4.19274   11.51858 
 16                   -3.74746   5.73355   9.26812 
 16                   -0.67291   6.80199   8.65104 
 42                   -4.18727   3.38254   8.92627 
 16                   -6.54507   4.14658   9.70031 
 16                   -4.0163    2.32858   11.01237 
 42                    3.07113   0.15416   13.67692 
 16                    3.91553  -1.59462   14.53187 
 16                    1.07837   0.63599   14.55166 
 42                    1.51828   6.08747   7.62981 
 16                    0.76253   5.86483   5.31623 
 16                    1.85969   5.7678    10.15701 
 42                    3.78555   4.76456   9.4906 
 16                    3.55613   4.79728   7.06398 
 16                    5.16247   6.79336   9.64162 
 42                    4.18435   6.97384   7.66129 
 16                    5.81624   7.6516    6.13736 
 16                    2.35241   8.41703   8.00074 
 42                    1.50097   8.07138   5.77227 
 16                    3.00039   9.8806    5.06695 
 16                   -0.36652   9.16867   6.0165 
 42                   -1.18963   6.74769   6.43801 
 16                   -2.15845   4.57911   5.90637 
 16                   -3.27964   8.00386   6.50236 
 42                   -3.87526   5.88798   6.91538 
 16                   -5.62633   5.23066   5.32505 
 16                   -6.40247   6.43737   6.88311 
 42                   -6.69745   4.07285   7.49719 
 16                   -5.179     2.34626   7.08863 
 16                   -8.63448   3.35509   7.02238 
 42                    4.5126    8.37079   4.32913 
 16                    3.39651   6.69346   3.56008 
 16                    5.77251   9.21556   2.85753 
 

 GradGradGradGradGradGradGradGradGradGradGradGradGradGradGradGradGradGrad
 Berny optimization.
 Initialization pass.
                           ----------------------------
                           !    Initial Parameters    !
                           ! (Angstroms and Degrees)  !
 --------------------------                            --------------------------
 ! Name  Definition              Value          Derivative Info.                !
 --------------------------------------------------------------------------------
 ! R1    R(1,2)                  2.3509         calculate D2E/DX2 analytically  !
 ! R2    R(1,3)                  2.3722         calculate D2E/DX2 analytically  !
 ! R3    R(1,4)                  2.4074         calculate D2E/DX2 analytically  !
 ! R4    R(1,5)                  2.5656         calculate D2E/DX2 analytically  !
 ! R5    R(1,6)                  2.887          calculate D2E/DX2 analytically  !
 ! R6    R(1,9)                  2.8163         calculate D2E/DX2 analytically  !
 ! R7    R(1,12)                 2.9093         calculate D2E/DX2 analytically  !
 ! R8    R(1,21)                 3.0506         calculate D2E/DX2 analytically  !
 ! R9    R(1,23)                 2.5403         calculate D2E/DX2 analytically  !
 ! R10   R(2,9)                  2.4443         calculate D2E/DX2 analytically  !
 ! R11   R(2,12)                 2.3749         calculate D2E/DX2 analytically  !
 ! R12   R(3,6)                  2.318          calculate D2E/DX2 analytically  !
 ! R13   R(4,6)                  2.3782         calculate D2E/DX2 analytically  !
 ! R14   R(4,9)                  2.4512         calculate D2E/DX2 analytically  !
 ! R15   R(5,12)                 2.499          calculate D2E/DX2 analytically  !
 ! R16   R(5,21)                 2.3141         calculate D2E/DX2 analytically  !
 ! R17   R(6,7)                  2.483          calculate D2E/DX2 analytically  !
 ! R18   R(6,8)                  2.2269         calculate D2E/DX2 analytically  !
 ! R19   R(6,9)                  3.1048         calculate D2E/DX2 analytically  !
 ! R20   R(6,20)                 2.4412         calculate D2E/DX2 analytically  !
 ! R21   R(7,13)                 2.4808         calculate D2E/DX2 analytically  !
 ! R22   R(7,18)                 2.3819         calculate D2E/DX2 analytically  !
 ! R23   R(8,9)                  2.6025         calculate D2E/DX2 analytically  !
 ! R24   R(8,13)                 2.6518         calculate D2E/DX2 analytically  !
 ! R25   R(9,10)                 2.5249         calculate D2E/DX2 analytically  !
 ! R26   R(9,11)                 2.4724         calculate D2E/DX2 analytically  !
 ! R27   R(9,12)                 2.6504         calculate D2E/DX2 analytically  !
 ! R28   R(9,26)                 2.5066         calculate D2E/DX2 analytically  !
 ! R29   R(9,27)                 2.962          calculate D2E/DX2 analytically  !
 ! R30   R(10,13)                2.5257         calculate D2E/DX2 analytically  !
 ! R31   R(10,24)                2.4913         calculate D2E/DX2 analytically  !
 ! R32   R(11,12)                2.3781         calculate D2E/DX2 analytically  !
 ! R33   R(11,27)                2.4322         calculate D2E/DX2 analytically  !
 ! R34   R(12,14)                2.595          calculate D2E/DX2 analytically  !
 ! R35   R(12,15)                2.3616         calculate D2E/DX2 analytically  !
 ! R36   R(13,16)                2.4516         calculate D2E/DX2 analytically  !
 ! R37   R(13,17)                2.5125         calculate D2E/DX2 analytically  !
 ! R38   R(13,18)                2.7411         calculate D2E/DX2 analytically  !
 ! R39   R(13,36)                2.9077         calculate D2E/DX2 analytically  !
 ! R40   R(13,37)                2.4065         calculate D2E/DX2 analytically  !
 ! R41   R(13,39)                2.7964         calculate D2E/DX2 analytically  !
 ! R42   R(14,21)                2.2195         calculate D2E/DX2 analytically  !
 ! R43   R(15,27)                2.4014         calculate D2E/DX2 analytically  !
 ! R44   R(16,18)                2.4161         calculate D2E/DX2 analytically  !
 ! R45   R(16,39)                2.3613         calculate D2E/DX2 analytically  !
 ! R46   R(17,24)                2.5209         calculate D2E/DX2 analytically  !
 ! R47   R(17,36)                2.2732         calculate D2E/DX2 analytically  !
 ! R48   R(18,19)                2.5966         calculate D2E/DX2 analytically  !
 ! R49   R(18,20)                2.3435         calculate D2E/DX2 analytically  !
 ! R50   R(18,42)                2.9698         calculate D2E/DX2 analytically  !
 ! R51   R(18,43)                2.3312         calculate D2E/DX2 analytically  !
 ! R52   R(19,42)                2.2096         calculate D2E/DX2 analytically  !
 ! R53   R(21,22)                2.1218         calculate D2E/DX2 analytically  !
 ! R54   R(21,23)                2.229          calculate D2E/DX2 analytically  !
 ! R55   R(24,25)                2.4441         calculate D2E/DX2 analytically  !
 ! R56   R(24,26)                2.5701         calculate D2E/DX2 analytically  !
 ! R57   R(24,28)                2.4774         calculate D2E/DX2 analytically  !
 ! R58   R(24,30)                2.8097         calculate D2E/DX2 analytically  !
 ! R59   R(24,32)                2.502          calculate D2E/DX2 analytically  !
 ! R60   R(24,33)                2.7178         calculate D2E/DX2 analytically  !
 ! R61   R(24,36)                3.0313         calculate D2E/DX2 analytically  !
 ! R62   R(25,33)                2.3711         calculate D2E/DX2 analytically  !
 ! R63   R(25,36)                2.4184         calculate D2E/DX2 analytically  !
 ! R64   R(26,27)                2.2715         calculate D2E/DX2 analytically  !
 ! R65   R(27,28)                2.4377         calculate D2E/DX2 analytically  !
 ! R66   R(27,29)                2.4566         calculate D2E/DX2 analytically  !
 ! R67   R(27,30)                2.8959         calculate D2E/DX2 analytically  !
 ! R68   R(28,30)                2.3428         calculate D2E/DX2 analytically  !
 ! R69   R(29,30)                2.2161         calculate D2E/DX2 analytically  !
 ! R70   R(30,31)                2.3334         calculate D2E/DX2 analytically  !
 ! R71   R(30,32)                2.3567         calculate D2E/DX2 analytically  !
 ! R72   R(31,45)                2.3423         calculate D2E/DX2 analytically  !
 ! R73   R(32,33)                2.4105         calculate D2E/DX2 analytically  !
 ! R74   R(33,34)                2.4534         calculate D2E/DX2 analytically  !
 ! R75   R(33,35)                2.1797         calculate D2E/DX2 analytically  !
 ! R76   R(33,36)                3.0716         calculate D2E/DX2 analytically  !
 ! R77   R(34,45)                2.2607         calculate D2E/DX2 analytically  !
 ! R78   R(35,36)                2.5916         calculate D2E/DX2 analytically  !
 ! R79   R(36,37)                2.4339         calculate D2E/DX2 analytically  !
 ! R80   R(36,38)                2.4393         calculate D2E/DX2 analytically  !
 ! R81   R(36,39)                2.86           calculate D2E/DX2 analytically  !
 ! R82   R(37,39)                2.383          calculate D2E/DX2 analytically  !
 ! R83   R(38,39)                2.2366         calculate D2E/DX2 analytically  !
 ! R84   R(39,40)                2.4551         calculate D2E/DX2 analytically  !
 ! R85   R(39,41)                2.5864         calculate D2E/DX2 analytically  !
 ! R86   R(40,41)                2.118          calculate D2E/DX2 analytically  !
 ! R87   R(40,42)                2.6844         calculate D2E/DX2 analytically  !
 ! R88   R(41,42)                2.4607         calculate D2E/DX2 analytically  !
 ! R89   R(42,43)                2.3353         calculate D2E/DX2 analytically  !
 ! R90   R(42,44)                2.1196         calculate D2E/DX2 analytically  !
 ! R91   R(45,46)                2.1565         calculate D2E/DX2 analytically  !
 ! R92   R(45,47)                2.1134         calculate D2E/DX2 analytically  !
 ! A1    A(2,1,3)              103.9655         calculate D2E/DX2 analytically  !
 ! A2    A(2,1,4)              110.7613         calculate D2E/DX2 analytically  !
 ! A3    A(2,1,5)              105.3825         calculate D2E/DX2 analytically  !
 ! A4    A(2,1,6)               95.5147         calculate D2E/DX2 analytically  !
 ! A5    A(2,1,21)              89.626          calculate D2E/DX2 analytically  !
 ! A6    A(2,1,23)              92.0258         calculate D2E/DX2 analytically  !
 ! A7    A(3,1,4)               96.9049         calculate D2E/DX2 analytically  !
 ! A8    A(3,1,5)              149.8445         calculate D2E/DX2 analytically  !
 ! A9    A(3,1,9)              111.8157         calculate D2E/DX2 analytically  !
 ! A10   A(3,1,12)             156.1677         calculate D2E/DX2 analytically  !
 ! A11   A(3,1,21)             126.224          calculate D2E/DX2 analytically  !
 ! A12   A(3,1,23)              81.3393         calculate D2E/DX2 analytically  !
 ! A13   A(4,1,5)               79.0599         calculate D2E/DX2 analytically  !
 ! A14   A(4,1,12)              90.4661         calculate D2E/DX2 analytically  !
 ! A15   A(4,1,21)             126.6577         calculate D2E/DX2 analytically  !
 ! A16   A(4,1,23)             156.7555         calculate D2E/DX2 analytically  !
 ! A17   A(5,1,6)              131.4068         calculate D2E/DX2 analytically  !
 ! A18   A(5,1,9)               90.6152         calculate D2E/DX2 analytically  !
 ! A19   A(5,1,23)              90.8239         calculate D2E/DX2 analytically  !
 ! A20   A(6,1,12)             121.0711         calculate D2E/DX2 analytically  !
 ! A21   A(6,1,23)             132.3419         calculate D2E/DX2 analytically  !
 ! A22   A(9,1,21)             118.3963         calculate D2E/DX2 analytically  !
 ! A23   A(9,1,23)             146.6202         calculate D2E/DX2 analytically  !
 ! A24   A(12,1,21)             63.3315         calculate D2E/DX2 analytically  !
 ! A25   A(12,1,23)            100.4512         calculate D2E/DX2 analytically  !
 ! A26   A(12,5,21)             81.0639         calculate D2E/DX2 analytically  !
 ! A27   A(1,6,7)              131.9824         calculate D2E/DX2 analytically  !
 ! A28   A(1,6,8)               93.6921         calculate D2E/DX2 analytically  !
 ! A29   A(1,6,20)             137.9256         calculate D2E/DX2 analytically  !
 ! A30   A(3,6,4)               99.2217         calculate D2E/DX2 analytically  !
 ! A31   A(3,6,7)              152.5118         calculate D2E/DX2 analytically  !
 ! A32   A(3,6,8)              106.9973         calculate D2E/DX2 analytically  !
 ! A33   A(3,6,9)              104.1194         calculate D2E/DX2 analytically  !
 ! A34   A(3,6,20)              85.4392         calculate D2E/DX2 analytically  !
 ! A35   A(4,6,7)               78.6234         calculate D2E/DX2 analytically  !
 ! A36   A(4,6,8)              105.778          calculate D2E/DX2 analytically  !
 ! A37   A(4,6,20)             145.7338         calculate D2E/DX2 analytically  !
 ! A38   A(7,6,8)               99.8534         calculate D2E/DX2 analytically  !
 ! A39   A(7,6,9)               95.752          calculate D2E/DX2 analytically  !
 ! A40   A(7,6,20)              81.9377         calculate D2E/DX2 analytically  !
 ! A41   A(8,6,20)             105.1623         calculate D2E/DX2 analytically  !
 ! A42   A(9,6,20)             160.065          calculate D2E/DX2 analytically  !
 ! A43   A(6,7,13)              84.5578         calculate D2E/DX2 analytically  !
 ! A44   A(6,7,18)              86.3017         calculate D2E/DX2 analytically  !
 ! A45   A(6,8,13)              85.9228         calculate D2E/DX2 analytically  !
 ! A46   A(9,8,13)              94.3027         calculate D2E/DX2 analytically  !
 ! A47   A(1,9,8)               87.7215         calculate D2E/DX2 analytically  !
 ! A48   A(1,9,10)             136.3414         calculate D2E/DX2 analytically  !
 ! A49   A(1,9,11)             101.2568         calculate D2E/DX2 analytically  !
 ! A50   A(1,9,26)             136.4882         calculate D2E/DX2 analytically  !
 ! A51   A(1,9,27)             131.6965         calculate D2E/DX2 analytically  !
 ! A52   A(2,9,4)              106.2429         calculate D2E/DX2 analytically  !
 ! A53   A(2,9,6)               88.3073         calculate D2E/DX2 analytically  !
 ! A54   A(2,9,8)               80.5468         calculate D2E/DX2 analytically  !
 ! A55   A(2,9,10)             161.1089         calculate D2E/DX2 analytically  !
 ! A56   A(2,9,11)             110.2072         calculate D2E/DX2 analytically  !
 ! A57   A(2,9,26)              84.541          calculate D2E/DX2 analytically  !
 ! A58   A(2,9,27)              95.2927         calculate D2E/DX2 analytically  !
 ! A59   A(4,9,8)               93.2065         calculate D2E/DX2 analytically  !
 ! A60   A(4,9,10)              84.0714         calculate D2E/DX2 analytically  !
 ! A61   A(4,9,11)              86.8505         calculate D2E/DX2 analytically  !
 ! A62   A(4,9,12)              95.9217         calculate D2E/DX2 analytically  !
 ! A63   A(4,9,26)             164.542          calculate D2E/DX2 analytically  !
 ! A64   A(4,9,27)             138.5849         calculate D2E/DX2 analytically  !
 ! A65   A(6,9,10)              86.8357         calculate D2E/DX2 analytically  !
 ! A66   A(6,9,11)             135.7333         calculate D2E/DX2 analytically  !
 ! A67   A(6,9,12)             122.3395         calculate D2E/DX2 analytically  !
 ! A68   A(6,9,26)             122.1741         calculate D2E/DX2 analytically  !
 ! A69   A(8,9,10)              83.1474         calculate D2E/DX2 analytically  !
 ! A70   A(8,9,12)             135.8166         calculate D2E/DX2 analytically  !
 ! A71   A(8,9,26)              77.4017         calculate D2E/DX2 analytically  !
 ! A72   A(8,9,27)             125.5023         calculate D2E/DX2 analytically  !
 ! A73   A(10,9,11)             85.7171         calculate D2E/DX2 analytically  !
 ! A74   A(10,9,12)            140.7453         calculate D2E/DX2 analytically  !
 ! A75   A(10,9,26)             82.6453         calculate D2E/DX2 analytically  !
 ! A76   A(10,9,27)             86.4438         calculate D2E/DX2 analytically  !
 ! A77   A(11,9,26)             99.9784         calculate D2E/DX2 analytically  !
 ! A78   A(12,9,26)             99.3628         calculate D2E/DX2 analytically  !
 ! A79   A(12,9,27)             67.76           calculate D2E/DX2 analytically  !
 ! A80   A(9,10,13)             99.4148         calculate D2E/DX2 analytically  !
 ! A81   A(9,10,24)             97.4568         calculate D2E/DX2 analytically  !
 ! A82   A(13,10,24)            95.3498         calculate D2E/DX2 analytically  !
 ! A83   A(12,11,27)            81.472          calculate D2E/DX2 analytically  !
 ! A84   A(1,12,11)            101.0133         calculate D2E/DX2 analytically  !
 ! A85   A(1,12,14)             96.2757         calculate D2E/DX2 analytically  !
 ! A86   A(1,12,15)            150.0893         calculate D2E/DX2 analytically  !
 ! A87   A(2,12,5)             106.7635         calculate D2E/DX2 analytically  !
 ! A88   A(2,12,11)            116.0894         calculate D2E/DX2 analytically  !
 ! A89   A(2,12,14)             89.8398         calculate D2E/DX2 analytically  !
 ! A90   A(2,12,15)             98.4953         calculate D2E/DX2 analytically  !
 ! A91   A(5,12,9)              96.0606         calculate D2E/DX2 analytically  !
 ! A92   A(5,12,11)             86.0836         calculate D2E/DX2 analytically  !
 ! A93   A(5,12,14)             87.7073         calculate D2E/DX2 analytically  !
 ! A94   A(5,12,15)            153.2465         calculate D2E/DX2 analytically  !
 ! A95   A(9,12,14)            147.2727         calculate D2E/DX2 analytically  !
 ! A96   A(9,12,15)            104.8789         calculate D2E/DX2 analytically  !
 ! A97   A(11,12,14)           154.0326         calculate D2E/DX2 analytically  !
 ! A98   A(11,12,15)            90.7228         calculate D2E/DX2 analytically  !
 ! A99   A(14,12,15)            83.6239         calculate D2E/DX2 analytically  !
 ! A100  A(7,13,8)              89.2614         calculate D2E/DX2 analytically  !
 ! A101  A(7,13,10)             81.7438         calculate D2E/DX2 analytically  !
 ! A102  A(7,13,16)            108.4429         calculate D2E/DX2 analytically  !
 ! A103  A(7,13,17)            160.5124         calculate D2E/DX2 analytically  !
 ! A104  A(7,13,36)            140.8678         calculate D2E/DX2 analytically  !
 ! A105  A(7,13,37)             89.031          calculate D2E/DX2 analytically  !
 ! A106  A(7,13,39)            109.5843         calculate D2E/DX2 analytically  !
 ! A107  A(8,13,10)             82.1452         calculate D2E/DX2 analytically  !
 ! A108  A(8,13,16)             83.9984         calculate D2E/DX2 analytically  !
 ! A109  A(8,13,17)             76.6458         calculate D2E/DX2 analytically  !
 ! A110  A(8,13,18)             91.5827         calculate D2E/DX2 analytically  !
 ! A111  A(8,13,36)            125.2042         calculate D2E/DX2 analytically  !
 ! A112  A(8,13,39)            136.3011         calculate D2E/DX2 analytically  !
 ! A113  A(10,13,16)           162.6914         calculate D2E/DX2 analytically  !
 ! A114  A(10,13,17)            83.0301         calculate D2E/DX2 analytically  !
 ! A115  A(10,13,18)           135.458          calculate D2E/DX2 analytically  !
 ! A116  A(10,13,36)            85.1314         calculate D2E/DX2 analytically  !
 ! A117  A(10,13,37)            87.1769         calculate D2E/DX2 analytically  !
 ! A118  A(10,13,39)           137.9251         calculate D2E/DX2 analytically  !
 ! A119  A(16,13,17)            83.7195         calculate D2E/DX2 analytically  !
 ! A120  A(16,13,36)            94.4865         calculate D2E/DX2 analytically  !
 ! A121  A(16,13,37)           106.5315         calculate D2E/DX2 analytically  !
 ! A122  A(17,13,18)           138.3575         calculate D2E/DX2 analytically  !
 ! A123  A(17,13,37)           102.3076         calculate D2E/DX2 analytically  !
 ! A124  A(17,13,39)            89.8798         calculate D2E/DX2 analytically  !
 ! A125  A(18,13,36)           131.3593         calculate D2E/DX2 analytically  !
 ! A126  A(18,13,37)            95.9301         calculate D2E/DX2 analytically  !
 ! A127  A(18,13,39)            71.2996         calculate D2E/DX2 analytically  !
 ! A128  A(12,14,21)            80.7244         calculate D2E/DX2 analytically  !
 ! A129  A(12,15,27)            82.4604         calculate D2E/DX2 analytically  !
 ! A130  A(18,16,39)            84.998          calculate D2E/DX2 analytically  !
 ! A131  A(13,17,24)            94.9427         calculate D2E/DX2 analytically  !
 ! A132  A(7,18,16)            113.0239         calculate D2E/DX2 analytically  !
 ! A133  A(7,18,20)             86.1936         calculate D2E/DX2 analytically  !
 ! A134  A(7,18,42)            133.5209         calculate D2E/DX2 analytically  !
 ! A135  A(7,18,43)             85.2458         calculate D2E/DX2 analytically  !
 ! A136  A(13,18,19)           136.5936         calculate D2E/DX2 analytically  !
 ! A137  A(13,18,20)           110.0365         calculate D2E/DX2 analytically  !
 ! A138  A(13,18,42)           121.1846         calculate D2E/DX2 analytically  !
 ! A139  A(13,18,43)           112.4086         calculate D2E/DX2 analytically  !
 ! A140  A(16,18,19)            80.6069         calculate D2E/DX2 analytically  !
 ! A141  A(16,18,20)           107.3612         calculate D2E/DX2 analytically  !
 ! A142  A(16,18,42)            89.7572         calculate D2E/DX2 analytically  !
 ! A143  A(16,18,43)           128.4279         calculate D2E/DX2 analytically  !
 ! A144  A(19,18,20)            86.1709         calculate D2E/DX2 analytically  !
 ! A145  A(19,18,43)            88.8246         calculate D2E/DX2 analytically  !
 ! A146  A(20,18,42)           126.4809         calculate D2E/DX2 analytically  !
 ! A147  A(20,18,43)           122.1971         calculate D2E/DX2 analytically  !
 ! A148  A(6,20,18)             88.1207         calculate D2E/DX2 analytically  !
 ! A149  A(1,21,14)            101.141          calculate D2E/DX2 analytically  !
 ! A150  A(1,21,22)            147.0119         calculate D2E/DX2 analytically  !
 ! A151  A(5,21,14)            102.2505         calculate D2E/DX2 analytically  !
 ! A152  A(5,21,22)            113.386          calculate D2E/DX2 analytically  !
 ! A153  A(5,21,23)            106.3228         calculate D2E/DX2 analytically  !
 ! A154  A(14,21,22)           111.7868         calculate D2E/DX2 analytically  !
 ! A155  A(14,21,23)           110.4849         calculate D2E/DX2 analytically  !
 ! A156  A(22,21,23)           112.075          calculate D2E/DX2 analytically  !
 ! A157  A(10,24,17)            83.5557         calculate D2E/DX2 analytically  !
 ! A158  A(10,24,25)            82.474          calculate D2E/DX2 analytically  !
 ! A159  A(10,24,26)            82.0375         calculate D2E/DX2 analytically  !
 ! A160  A(10,24,28)            82.1039         calculate D2E/DX2 analytically  !
 ! A161  A(10,24,30)           131.3065         calculate D2E/DX2 analytically  !
 ! A162  A(10,24,33)           136.0463         calculate D2E/DX2 analytically  !
 ! A163  A(10,24,36)            83.1244         calculate D2E/DX2 analytically  !
 ! A164  A(17,24,25)            98.0782         calculate D2E/DX2 analytically  !
 ! A165  A(17,24,26)            75.6628         calculate D2E/DX2 analytically  !
 ! A166  A(17,24,28)           162.7719         calculate D2E/DX2 analytically  !
 ! A167  A(17,24,30)           136.9556         calculate D2E/DX2 analytically  !
 ! A168  A(17,24,32)            88.0413         calculate D2E/DX2 analytically  !
 ! A169  A(17,24,33)            93.6947         calculate D2E/DX2 analytically  !
 ! A170  A(25,24,26)           163.854          calculate D2E/DX2 analytically  !
 ! A171  A(25,24,28)            89.4678         calculate D2E/DX2 analytically  !
 ! A172  A(25,24,30)           109.436          calculate D2E/DX2 analytically  !
 ! A173  A(25,24,32)           109.1621         calculate D2E/DX2 analytically  !
 ! A174  A(26,24,28)            92.897          calculate D2E/DX2 analytically  !
 ! A175  A(26,24,30)            84.3862         calculate D2E/DX2 analytically  !
 ! A176  A(26,24,32)            85.7415         calculate D2E/DX2 analytically  !
 ! A177  A(26,24,33)           139.7904         calculate D2E/DX2 analytically  !
 ! A178  A(26,24,36)           122.1642         calculate D2E/DX2 analytically  !
 ! A179  A(28,24,32)           104.1528         calculate D2E/DX2 analytically  !
 ! A180  A(28,24,33)           103.2551         calculate D2E/DX2 analytically  !
 ! A181  A(28,24,36)           139.3263         calculate D2E/DX2 analytically  !
 ! A182  A(30,24,33)            77.492          calculate D2E/DX2 analytically  !
 ! A183  A(30,24,36)           141.5663         calculate D2E/DX2 analytically  !
 ! A184  A(32,24,36)            98.8191         calculate D2E/DX2 analytically  !
 ! A185  A(9,26,24)             95.9068         calculate D2E/DX2 analytically  !
 ! A186  A(24,26,27)            83.0547         calculate D2E/DX2 analytically  !
 ! A187  A(9,27,15)             95.1462         calculate D2E/DX2 analytically  !
 ! A188  A(9,27,28)             99.2894         calculate D2E/DX2 analytically  !
 ! A189  A(9,27,29)            149.1395         calculate D2E/DX2 analytically  !
 ! A190  A(9,27,30)            129.4117         calculate D2E/DX2 analytically  !
 ! A191  A(11,27,15)            88.4858         calculate D2E/DX2 analytically  !
 ! A192  A(11,27,26)           108.2935         calculate D2E/DX2 analytically  !
 ! A193  A(11,27,28)            81.8399         calculate D2E/DX2 analytically  !
 ! A194  A(11,27,29)           156.2822         calculate D2E/DX2 analytically  !
 ! A195  A(11,27,30)           132.8757         calculate D2E/DX2 analytically  !
 ! A196  A(15,27,26)           105.3157         calculate D2E/DX2 analytically  !
 ! A197  A(15,27,28)           152.7497         calculate D2E/DX2 analytically  !
 ! A198  A(15,27,29)            82.8687         calculate D2E/DX2 analytically  !
 ! A199  A(15,27,30)           130.4704         calculate D2E/DX2 analytically  !
 ! A200  A(26,27,28)           101.9074         calculate D2E/DX2 analytically  !
 ! A201  A(26,27,29)            95.3035         calculate D2E/DX2 analytically  !
 ! A202  A(26,27,30)            88.0021         calculate D2E/DX2 analytically  !
 ! A203  A(28,27,29)            95.904          calculate D2E/DX2 analytically  !
 ! A204  A(24,28,27)            81.781          calculate D2E/DX2 analytically  !
 ! A205  A(24,30,27)            68.638          calculate D2E/DX2 analytically  !
 ! A206  A(24,30,29)           113.7738         calculate D2E/DX2 analytically  !
 ! A207  A(24,30,31)           138.4101         calculate D2E/DX2 analytically  !
 ! A208  A(27,30,31)           136.9241         calculate D2E/DX2 analytically  !
 ! A209  A(27,30,32)           105.6134         calculate D2E/DX2 analytically  !
 ! A210  A(28,30,29)           105.6953         calculate D2E/DX2 analytically  !
 ! A211  A(28,30,31)           106.9099         calculate D2E/DX2 analytically  !
 ! A212  A(28,30,32)           113.4034         calculate D2E/DX2 analytically  !
 ! A213  A(29,30,31)           107.373          calculate D2E/DX2 analytically  !
 ! A214  A(29,30,32)           105.3225         calculate D2E/DX2 analytically  !
 ! A215  A(31,30,32)           117.3764         calculate D2E/DX2 analytically  !
 ! A216  A(30,31,45)           101.7782         calculate D2E/DX2 analytically  !
 ! A217  A(30,32,33)            93.0725         calculate D2E/DX2 analytically  !
 ! A218  A(24,33,34)           136.9619         calculate D2E/DX2 analytically  !
 ! A219  A(24,33,35)           107.238          calculate D2E/DX2 analytically  !
 ! A220  A(25,33,32)           114.914          calculate D2E/DX2 analytically  !
 ! A221  A(25,33,34)           145.2158         calculate D2E/DX2 analytically  !
 ! A222  A(25,33,35)           102.8968         calculate D2E/DX2 analytically  !
 ! A223  A(32,33,34)            86.799          calculate D2E/DX2 analytically  !
 ! A224  A(32,33,35)            97.288          calculate D2E/DX2 analytically  !
 ! A225  A(32,33,36)            99.8361         calculate D2E/DX2 analytically  !
 ! A226  A(34,33,35)           100.6381         calculate D2E/DX2 analytically  !
 ! A227  A(34,33,36)           156.2727         calculate D2E/DX2 analytically  !
 ! A228  A(33,34,45)            90.5814         calculate D2E/DX2 analytically  !
 ! A229  A(13,36,24)            77.2679         calculate D2E/DX2 analytically  !
 ! A230  A(13,36,25)           101.3731         calculate D2E/DX2 analytically  !
 ! A231  A(13,36,33)           130.1502         calculate D2E/DX2 analytically  !
 ! A232  A(13,36,35)           149.7613         calculate D2E/DX2 analytically  !
 ! A233  A(13,36,38)           100.4638         calculate D2E/DX2 analytically  !
 ! A234  A(17,36,25)           106.07           calculate D2E/DX2 analytically  !
 ! A235  A(17,36,33)            90.0914         calculate D2E/DX2 analytically  !
 ! A236  A(17,36,35)            93.6596         calculate D2E/DX2 analytically  !
 ! A237  A(17,36,37)           108.9301         calculate D2E/DX2 analytically  !
 ! A238  A(17,36,38)            99.0197         calculate D2E/DX2 analytically  !
 ! A239  A(17,36,39)            93.3329         calculate D2E/DX2 analytically  !
 ! A240  A(24,36,35)            89.0652         calculate D2E/DX2 analytically  !
 ! A241  A(24,36,37)           104.3241         calculate D2E/DX2 analytically  !
 ! A242  A(24,36,38)           150.1316         calculate D2E/DX2 analytically  !
 ! A243  A(24,36,39)           135.0521         calculate D2E/DX2 analytically  !
 ! A244  A(25,36,35)            90.5276         calculate D2E/DX2 analytically  !
 ! A245  A(25,36,37)            83.9574         calculate D2E/DX2 analytically  !
 ! A246  A(25,36,38)           153.1056         calculate D2E/DX2 analytically  !
 ! A247  A(25,36,39)           136.5252         calculate D2E/DX2 analytically  !
 ! A248  A(33,36,37)           133.2592         calculate D2E/DX2 analytically  !
 ! A249  A(33,36,38)           122.2977         calculate D2E/DX2 analytically  !
 ! A250  A(35,36,37)           157.4018         calculate D2E/DX2 analytically  !
 ! A251  A(35,36,38)            78.1908         calculate D2E/DX2 analytically  !
 ! A252  A(35,36,39)           127.315          calculate D2E/DX2 analytically  !
 ! A253  A(37,36,38)            97.0963         calculate D2E/DX2 analytically  !
 ! A254  A(13,39,38)           109.42           calculate D2E/DX2 analytically  !
 ! A255  A(13,39,40)           136.0633         calculate D2E/DX2 analytically  !
 ! A256  A(13,39,41)           145.6411         calculate D2E/DX2 analytically  !
 ! A257  A(16,39,36)            97.7669         calculate D2E/DX2 analytically  !
 ! A258  A(16,39,37)           110.3025         calculate D2E/DX2 analytically  !
 ! A259  A(16,39,38)           103.3828         calculate D2E/DX2 analytically  !
 ! A260  A(16,39,40)           131.7995         calculate D2E/DX2 analytically  !
 ! A261  A(16,39,41)            94.5431         calculate D2E/DX2 analytically  !
 ! A262  A(36,39,40)           129.9498         calculate D2E/DX2 analytically  !
 ! A263  A(36,39,41)           148.3859         calculate D2E/DX2 analytically  !
 ! A264  A(37,39,38)           104.4514         calculate D2E/DX2 analytically  !
 ! A265  A(37,39,40)            95.3082         calculate D2E/DX2 analytically  !
 ! A266  A(37,39,41)           144.6199         calculate D2E/DX2 analytically  !
 ! A267  A(38,39,40)           108.8814         calculate D2E/DX2 analytically  !
 ! A268  A(38,39,41)            93.2654         calculate D2E/DX2 analytically  !
 ! A269  A(39,40,42)            82.8721         calculate D2E/DX2 analytically  !
 ! A270  A(39,41,42)            84.8312         calculate D2E/DX2 analytically  !
 ! A271  A(18,42,40)            98.7642         calculate D2E/DX2 analytically  !
 ! A272  A(18,42,41)           104.0118         calculate D2E/DX2 analytically  !
 ! A273  A(18,42,44)           143.2745         calculate D2E/DX2 analytically  !
 ! A274  A(19,42,40)           139.8969         calculate D2E/DX2 analytically  !
 ! A275  A(19,42,41)           102.0341         calculate D2E/DX2 analytically  !
 ! A276  A(19,42,43)            98.8745         calculate D2E/DX2 analytically  !
 ! A277  A(19,42,44)           107.3176         calculate D2E/DX2 analytically  !
 ! A278  A(40,42,43)            85.2893         calculate D2E/DX2 analytically  !
 ! A279  A(40,42,44)           109.2347         calculate D2E/DX2 analytically  !
 ! A280  A(41,42,43)           126.0743         calculate D2E/DX2 analytically  !
 ! A281  A(41,42,44)           112.2742         calculate D2E/DX2 analytically  !
 ! A282  A(43,42,44)           107.7372         calculate D2E/DX2 analytically  !
 ! A283  A(31,45,34)           108.9902         calculate D2E/DX2 analytically  !
 ! A284  A(31,45,46)           108.9372         calculate D2E/DX2 analytically  !
 ! A285  A(31,45,47)           109.1765         calculate D2E/DX2 analytically  !
 ! A286  A(34,45,46)           106.8371         calculate D2E/DX2 analytically  !
 ! A287  A(34,45,47)           111.0432         calculate D2E/DX2 analytically  !
 ! A288  A(46,45,47)           111.7839         calculate D2E/DX2 analytically  !
 ! A289  L(6,1,21,12,-1)       184.4026         calculate D2E/DX2 analytically  !
 ! A290  L(6,9,27,2,-1)        183.6            calculate D2E/DX2 analytically  !
 ! A291  L(8,9,11,1,-1)        188.9783         calculate D2E/DX2 analytically  !
 ! A292  L(8,13,37,7,-1)       178.2925         calculate D2E/DX2 analytically  !
 ! A293  L(7,18,19,16,-1)      193.6308         calculate D2E/DX2 analytically  !
 ! A294  L(10,24,32,17,-1)     171.597          calculate D2E/DX2 analytically  !
 ! A295  L(33,36,39,17,-1)     183.4243         calculate D2E/DX2 analytically  !
 ! A296  L(6,1,21,12,-2)       183.3733         calculate D2E/DX2 analytically  !
 ! A297  L(6,9,27,2,-2)        190.3959         calculate D2E/DX2 analytically  !
 ! A298  L(8,9,11,1,-2)        173.2443         calculate D2E/DX2 analytically  !
 ! A299  L(8,13,37,7,-2)       190.5424         calculate D2E/DX2 analytically  !
 ! A300  L(7,18,19,16,-2)      183.7602         calculate D2E/DX2 analytically  !
 ! A301  L(10,24,32,17,-2)     169.4993         calculate D2E/DX2 analytically  !
 ! A302  L(33,36,39,17,-2)     171.9076         calculate D2E/DX2 analytically  !
 ! D1    D(2,1,6,7)            111.8558         calculate D2E/DX2 analytically  !
 ! D2    D(2,1,6,8)              5.0723         calculate D2E/DX2 analytically  !
 ! D3    D(2,1,6,20)          -112.4836         calculate D2E/DX2 analytically  !
 ! D4    D(5,1,6,7)             -4.2768         calculate D2E/DX2 analytically  !
 ! D5    D(5,1,6,8)           -111.0603         calculate D2E/DX2 analytically  !
 ! D6    D(5,1,6,20)           131.3839         calculate D2E/DX2 analytically  !
 ! D7    D(12,1,6,7)            62.9943         calculate D2E/DX2 analytically  !
 ! D8    D(12,1,6,8)           -43.7891         calculate D2E/DX2 analytically  !
 ! D9    D(12,1,6,20)         -161.345          calculate D2E/DX2 analytically  !
 ! D10   D(23,1,6,7)          -150.3261         calculate D2E/DX2 analytically  !
 ! D11   D(23,1,6,8)           102.8904         calculate D2E/DX2 analytically  !
 ! D12   D(23,1,6,20)          -14.6655         calculate D2E/DX2 analytically  !
 ! D13   D(3,1,9,8)             12.5173         calculate D2E/DX2 analytically  !
 ! D14   D(3,1,9,10)           -65.0868         calculate D2E/DX2 analytically  !
 ! D15   D(3,1,9,11)          -160.727          calculate D2E/DX2 analytically  !
 ! D16   D(3,1,9,26)            81.4812         calculate D2E/DX2 analytically  !
 ! D17   D(3,1,9,27)           150.4987         calculate D2E/DX2 analytically  !
 ! D18   D(5,1,9,8)            171.8616         calculate D2E/DX2 analytically  !
 ! D19   D(5,1,9,10)            94.2575         calculate D2E/DX2 analytically  !
 ! D20   D(5,1,9,11)            -1.3826         calculate D2E/DX2 analytically  !
 ! D21   D(5,1,9,26)          -119.1745         calculate D2E/DX2 analytically  !
 ! D22   D(5,1,9,27)           -50.157          calculate D2E/DX2 analytically  !
 ! D23   D(21,1,9,8)          -147.5334         calculate D2E/DX2 analytically  !
 ! D24   D(21,1,9,10)          134.8625         calculate D2E/DX2 analytically  !
 ! D25   D(21,1,9,11)           39.2223         calculate D2E/DX2 analytically  !
 ! D26   D(21,1,9,26)          -78.5695         calculate D2E/DX2 analytically  !
 ! D27   D(21,1,9,27)           -9.552          calculate D2E/DX2 analytically  !
 ! D28   D(23,1,9,8)           -95.7065         calculate D2E/DX2 analytically  !
 ! D29   D(23,1,9,10)         -173.3106         calculate D2E/DX2 analytically  !
 ! D30   D(23,1,9,11)           91.0493         calculate D2E/DX2 analytically  !
 ! D31   D(23,1,9,26)          -26.7426         calculate D2E/DX2 analytically  !
 ! D32   D(23,1,9,27)           42.2749         calculate D2E/DX2 analytically  !
 ! D33   D(3,1,12,11)         -106.8995         calculate D2E/DX2 analytically  !
 ! D34   D(3,1,12,14)           92.5669         calculate D2E/DX2 analytically  !
 ! D35   D(3,1,12,15)            4.4516         calculate D2E/DX2 analytically  !
 ! D36   D(4,1,12,11)            1.5192         calculate D2E/DX2 analytically  !
 ! D37   D(4,1,12,14)         -159.0143         calculate D2E/DX2 analytically  !
 ! D38   D(4,1,12,15)          112.8703         calculate D2E/DX2 analytically  !
 ! D39   D(6,1,12,11)          -43.4986         calculate D2E/DX2 analytically  !
 ! D40   D(6,1,12,14)          155.9679         calculate D2E/DX2 analytically  !
 ! D41   D(6,1,12,15)           67.8526         calculate D2E/DX2 analytically  !
 ! D42   D(21,1,12,11)         133.1281         calculate D2E/DX2 analytically  !
 ! D43   D(21,1,12,14)         -27.4054         calculate D2E/DX2 analytically  !
 ! D44   D(21,1,12,15)        -115.5207         calculate D2E/DX2 analytically  !
 ! D45   D(23,1,12,11)         160.8869         calculate D2E/DX2 analytically  !
 ! D46   D(23,1,12,14)           0.3534         calculate D2E/DX2 analytically  !
 ! D47   D(23,1,12,15)         -87.7619         calculate D2E/DX2 analytically  !
 ! D48   D(2,1,21,14)          -14.1248         calculate D2E/DX2 analytically  !
 ! D49   D(2,1,21,22)          169.3397         calculate D2E/DX2 analytically  !
 ! D50   D(3,1,21,14)         -121.2455         calculate D2E/DX2 analytically  !
 ! D51   D(3,1,21,22)           62.219          calculate D2E/DX2 analytically  !
 ! D52   D(4,1,21,14)          101.7892         calculate D2E/DX2 analytically  !
 ! D53   D(4,1,21,22)          -74.7464         calculate D2E/DX2 analytically  !
 ! D54   D(9,1,21,14)           35.6351         calculate D2E/DX2 analytically  !
 ! D55   D(9,1,21,22)         -140.9004         calculate D2E/DX2 analytically  !
 ! D56   D(12,1,21,14)          33.0397         calculate D2E/DX2 analytically  !
 ! D57   D(12,1,21,22)        -143.4958         calculate D2E/DX2 analytically  !
 ! D58   D(1,2,9,12)           -82.1509         calculate D2E/DX2 analytically  !
 ! D59   D(1,4,6,9)             72.7595         calculate D2E/DX2 analytically  !
 ! D60   D(21,5,12,2)          -69.5338         calculate D2E/DX2 analytically  !
 ! D61   D(21,5,12,9)         -127.7876         calculate D2E/DX2 analytically  !
 ! D62   D(21,5,12,11)         174.3786         calculate D2E/DX2 analytically  !
 ! D63   D(21,5,12,14)          19.6077         calculate D2E/DX2 analytically  !
 ! D64   D(21,5,12,15)          90.562          calculate D2E/DX2 analytically  !
 ! D65   D(12,5,21,14)         -23.6522         calculate D2E/DX2 analytically  !
 ! D66   D(12,5,21,22)        -144.1625         calculate D2E/DX2 analytically  !
 ! D67   D(12,5,21,23)          92.244          calculate D2E/DX2 analytically  !
 ! D68   D(1,6,7,13)          -109.3845         calculate D2E/DX2 analytically  !
 ! D69   D(1,6,7,18)          -178.2027         calculate D2E/DX2 analytically  !
 ! D70   D(3,6,7,13)           162.3426         calculate D2E/DX2 analytically  !
 ! D71   D(3,6,7,18)            93.5245         calculate D2E/DX2 analytically  !
 ! D72   D(4,6,7,13)          -109.5232         calculate D2E/DX2 analytically  !
 ! D73   D(4,6,7,18)          -178.3414         calculate D2E/DX2 analytically  !
 ! D74   D(8,6,7,13)            -5.2489         calculate D2E/DX2 analytically  !
 ! D75   D(8,6,7,18)           -74.0671         calculate D2E/DX2 analytically  !
 ! D76   D(9,6,7,13)           -61.2063         calculate D2E/DX2 analytically  !
 ! D77   D(9,6,7,18)          -130.0245         calculate D2E/DX2 analytically  !
 ! D78   D(20,6,7,13)           98.8453         calculate D2E/DX2 analytically  !
 ! D79   D(20,6,7,18)           30.0271         calculate D2E/DX2 analytically  !
 ! D80   D(1,6,8,13)           138.6517         calculate D2E/DX2 analytically  !
 ! D81   D(3,6,8,13)          -169.1473         calculate D2E/DX2 analytically  !
 ! D82   D(4,6,8,13)            85.7526         calculate D2E/DX2 analytically  !
 ! D83   D(7,6,8,13)             4.8998         calculate D2E/DX2 analytically  !
 ! D84   D(20,6,8,13)          -79.3371         calculate D2E/DX2 analytically  !
 ! D85   D(3,6,9,2)            -22.8507         calculate D2E/DX2 analytically  !
 ! D86   D(3,6,9,10)           175.4124         calculate D2E/DX2 analytically  !
 ! D87   D(3,6,9,11)            94.8442         calculate D2E/DX2 analytically  !
 ! D88   D(3,6,9,12)            23.4191         calculate D2E/DX2 analytically  !
 ! D89   D(3,6,9,26)          -105.3214         calculate D2E/DX2 analytically  !
 ! D90   D(7,6,9,2)            176.2915         calculate D2E/DX2 analytically  !
 ! D91   D(7,6,9,10)            14.5546         calculate D2E/DX2 analytically  !
 ! D92   D(7,6,9,11)           -66.0136         calculate D2E/DX2 analytically  !
 ! D93   D(7,6,9,12)          -137.4387         calculate D2E/DX2 analytically  !
 ! D94   D(7,6,9,26)            93.8208         calculate D2E/DX2 analytically  !
 ! D95   D(20,6,9,2)            94.0902         calculate D2E/DX2 analytically  !
 ! D96   D(20,6,9,10)          -67.6467         calculate D2E/DX2 analytically  !
 ! D97   D(20,6,9,11)         -148.2149         calculate D2E/DX2 analytically  !
 ! D98   D(20,6,9,12)          140.36           calculate D2E/DX2 analytically  !
 ! D99   D(20,6,9,26)           11.6195         calculate D2E/DX2 analytically  !
 ! D100  D(1,6,20,18)         -178.8704         calculate D2E/DX2 analytically  !
 ! D101  D(3,6,20,18)          173.9602         calculate D2E/DX2 analytically  !
 ! D102  D(4,6,20,18)          -86.3426         calculate D2E/DX2 analytically  !
 ! D103  D(7,6,20,18)          -30.5198         calculate D2E/DX2 analytically  !
 ! D104  D(8,6,20,18)           67.5677         calculate D2E/DX2 analytically  !
 ! D105  D(9,6,20,18)           54.1052         calculate D2E/DX2 analytically  !
 ! D106  D(6,7,13,8)             4.3412         calculate D2E/DX2 analytically  !
 ! D107  D(6,7,13,10)           86.5112         calculate D2E/DX2 analytically  !
 ! D108  D(6,7,13,16)          -79.0825         calculate D2E/DX2 analytically  !
 ! D109  D(6,7,13,17)           47.5523         calculate D2E/DX2 analytically  !
 ! D110  D(6,7,13,36)          158.1968         calculate D2E/DX2 analytically  !
 ! D111  D(6,7,13,37)          173.7989         calculate D2E/DX2 analytically  !
 ! D112  D(6,7,13,39)         -135.375          calculate D2E/DX2 analytically  !
 ! D113  D(6,7,18,16)           76.1089         calculate D2E/DX2 analytically  !
 ! D114  D(6,7,18,20)          -31.1485         calculate D2E/DX2 analytically  !
 ! D115  D(6,7,18,42)         -170.4864         calculate D2E/DX2 analytically  !
 ! D116  D(6,7,18,43)         -153.9267         calculate D2E/DX2 analytically  !
 ! D117  D(13,8,9,1)          -129.8715         calculate D2E/DX2 analytically  !
 ! D118  D(13,8,9,2)           177.7798         calculate D2E/DX2 analytically  !
 ! D119  D(13,8,9,4)           -76.2774         calculate D2E/DX2 analytically  !
 ! D120  D(13,8,9,10)            7.3538         calculate D2E/DX2 analytically  !
 ! D121  D(13,8,9,12)         -178.1597         calculate D2E/DX2 analytically  !
 ! D122  D(13,8,9,26)           91.312          calculate D2E/DX2 analytically  !
 ! D123  D(13,8,9,27)           88.0037         calculate D2E/DX2 analytically  !
 ! D124  D(6,8,13,7)            -4.8321         calculate D2E/DX2 analytically  !
 ! D125  D(6,8,13,10)          -86.5994         calculate D2E/DX2 analytically  !
 ! D126  D(6,8,13,16)          103.7997         calculate D2E/DX2 analytically  !
 ! D127  D(6,8,13,17)         -171.2545         calculate D2E/DX2 analytically  !
 ! D128  D(6,8,13,18)           49.1217         calculate D2E/DX2 analytically  !
 ! D129  D(6,8,13,36)         -164.9346         calculate D2E/DX2 analytically  !
 ! D130  D(6,8,13,39)          113.3145         calculate D2E/DX2 analytically  !
 ! D131  D(9,8,13,7)            74.3989         calculate D2E/DX2 analytically  !
 ! D132  D(9,8,13,10)           -7.3684         calculate D2E/DX2 analytically  !
 ! D133  D(9,8,13,16)         -176.9693         calculate D2E/DX2 analytically  !
 ! D134  D(9,8,13,17)          -92.0235         calculate D2E/DX2 analytically  !
 ! D135  D(9,8,13,18)          128.3527         calculate D2E/DX2 analytically  !
 ! D136  D(9,8,13,36)          -85.7037         calculate D2E/DX2 analytically  !
 ! D137  D(9,8,13,39)         -167.4546         calculate D2E/DX2 analytically  !
 ! D138  D(1,9,10,13)           71.5935         calculate D2E/DX2 analytically  !
 ! D139  D(1,9,10,24)          168.3135         calculate D2E/DX2 analytically  !
 ! D140  D(2,9,10,13)          -38.2532         calculate D2E/DX2 analytically  !
 ! D141  D(2,9,10,24)           58.4668         calculate D2E/DX2 analytically  !
 ! D142  D(4,9,10,13)           86.1562         calculate D2E/DX2 analytically  !
 ! D143  D(4,9,10,24)         -177.1237         calculate D2E/DX2 analytically  !
 ! D144  D(6,9,10,13)           37.0961         calculate D2E/DX2 analytically  !
 ! D145  D(6,9,10,24)          133.8162         calculate D2E/DX2 analytically  !
 ! D146  D(8,9,10,13)           -7.8071         calculate D2E/DX2 analytically  !
 ! D147  D(8,9,10,24)           88.9129         calculate D2E/DX2 analytically  !
 ! D148  D(11,9,10,13)         173.4271         calculate D2E/DX2 analytically  !
 ! D149  D(11,9,10,24)         -89.8529         calculate D2E/DX2 analytically  !
 ! D150  D(12,9,10,13)         178.2676         calculate D2E/DX2 analytically  !
 ! D151  D(12,9,10,24)         -85.0123         calculate D2E/DX2 analytically  !
 ! D152  D(26,9,10,13)         -85.9194         calculate D2E/DX2 analytically  !
 ! D153  D(26,9,10,24)          10.8006         calculate D2E/DX2 analytically  !
 ! D154  D(27,9,10,13)        -134.2137         calculate D2E/DX2 analytically  !
 ! D155  D(27,9,10,24)         -37.4937         calculate D2E/DX2 analytically  !
 ! D156  D(4,9,12,5)             0.339          calculate D2E/DX2 analytically  !
 ! D157  D(4,9,12,14)          -94.8704         calculate D2E/DX2 analytically  !
 ! D158  D(4,9,12,15)          163.5414         calculate D2E/DX2 analytically  !
 ! D159  D(6,9,12,5)            44.6562         calculate D2E/DX2 analytically  !
 ! D160  D(6,9,12,14)          -50.5532         calculate D2E/DX2 analytically  !
 ! D161  D(6,9,12,15)         -152.1414         calculate D2E/DX2 analytically  !
 ! D162  D(8,9,12,5)           101.1405         calculate D2E/DX2 analytically  !
 ! D163  D(8,9,12,14)            5.9311         calculate D2E/DX2 analytically  !
 ! D164  D(8,9,12,15)          -95.6571         calculate D2E/DX2 analytically  !
 ! D165  D(10,9,12,5)          -87.5302         calculate D2E/DX2 analytically  !
 ! D166  D(10,9,12,14)         177.2604         calculate D2E/DX2 analytically  !
 ! D167  D(10,9,12,15)          75.6722         calculate D2E/DX2 analytically  !
 ! D168  D(26,9,12,5)         -177.3432         calculate D2E/DX2 analytically  !
 ! D169  D(26,9,12,14)          87.4474         calculate D2E/DX2 analytically  !
 ! D170  D(26,9,12,15)         -14.1408         calculate D2E/DX2 analytically  !
 ! D171  D(27,9,12,5)         -140.2079         calculate D2E/DX2 analytically  !
 ! D172  D(27,9,12,14)         124.5827         calculate D2E/DX2 analytically  !
 ! D173  D(27,9,12,15)          22.9945         calculate D2E/DX2 analytically  !
 ! D174  D(1,9,26,24)         -167.8809         calculate D2E/DX2 analytically  !
 ! D175  D(2,9,26,24)         -176.5199         calculate D2E/DX2 analytically  !
 ! D176  D(4,9,26,24)          -41.3953         calculate D2E/DX2 analytically  !
 ! D177  D(6,9,26,24)          -91.9814         calculate D2E/DX2 analytically  !
 ! D178  D(8,9,26,24)          -95.0136         calculate D2E/DX2 analytically  !
 ! D179  D(10,9,26,24)         -10.4319         calculate D2E/DX2 analytically  !
 ! D180  D(11,9,26,24)          73.8769         calculate D2E/DX2 analytically  !
 ! D181  D(12,9,26,24)         129.9241         calculate D2E/DX2 analytically  !
 ! D182  D(1,9,27,15)          -15.346          calculate D2E/DX2 analytically  !
 ! D183  D(1,9,27,28)          141.4642         calculate D2E/DX2 analytically  !
 ! D184  D(1,9,27,29)         -100.0511         calculate D2E/DX2 analytically  !
 ! D185  D(1,9,27,30)         -171.9085         calculate D2E/DX2 analytically  !
 ! D186  D(2,9,27,15)           27.2576         calculate D2E/DX2 analytically  !
 ! D187  D(2,9,27,28)         -175.9322         calculate D2E/DX2 analytically  !
 ! D188  D(2,9,27,29)          -57.4475         calculate D2E/DX2 analytically  !
 ! D189  D(2,9,27,30)         -129.3049         calculate D2E/DX2 analytically  !
 ! D190  D(4,9,27,15)          -94.7255         calculate D2E/DX2 analytically  !
 ! D191  D(4,9,27,28)           62.0847         calculate D2E/DX2 analytically  !
 ! D192  D(4,9,27,29)         -179.4306         calculate D2E/DX2 analytically  !
 ! D193  D(4,9,27,30)          108.712          calculate D2E/DX2 analytically  !
 ! D194  D(8,9,27,15)          109.4106         calculate D2E/DX2 analytically  !
 ! D195  D(8,9,27,28)          -93.7792         calculate D2E/DX2 analytically  !
 ! D196  D(8,9,27,29)           24.7055         calculate D2E/DX2 analytically  !
 ! D197  D(8,9,27,30)          -47.1519         calculate D2E/DX2 analytically  !
 ! D198  D(10,9,27,15)        -171.611          calculate D2E/DX2 analytically  !
 ! D199  D(10,9,27,28)         -14.8008         calculate D2E/DX2 analytically  !
 ! D200  D(10,9,27,29)         103.6839         calculate D2E/DX2 analytically  !
 ! D201  D(10,9,27,30)          31.8265         calculate D2E/DX2 analytically  !
 ! D202  D(12,9,27,15)         -21.8874         calculate D2E/DX2 analytically  !
 ! D203  D(12,9,27,28)         134.9228         calculate D2E/DX2 analytically  !
 ! D204  D(12,9,27,29)        -106.5925         calculate D2E/DX2 analytically  !
 ! D205  D(12,9,27,30)        -178.4499         calculate D2E/DX2 analytically  !
 ! D206  D(9,10,13,7)          -82.715          calculate D2E/DX2 analytically  !
 ! D207  D(9,10,13,8)            7.6786         calculate D2E/DX2 analytically  !
 ! D208  D(9,10,13,16)          44.7907         calculate D2E/DX2 analytically  !
 ! D209  D(9,10,13,17)          85.0854         calculate D2E/DX2 analytically  !
 ! D210  D(9,10,13,18)         -76.5573         calculate D2E/DX2 analytically  !
 ! D211  D(9,10,13,36)         134.2491         calculate D2E/DX2 analytically  !
 ! D212  D(9,10,13,37)        -172.1447         calculate D2E/DX2 analytically  !
 ! D213  D(9,10,13,39)         167.1202         calculate D2E/DX2 analytically  !
 ! D214  D(24,10,13,7)         178.7941         calculate D2E/DX2 analytically  !
 ! D215  D(24,10,13,8)         -90.8123         calculate D2E/DX2 analytically  !
 ! D216  D(24,10,13,16)        -53.7003         calculate D2E/DX2 analytically  !
 ! D217  D(24,10,13,17)        -13.4056         calculate D2E/DX2 analytically  !
 ! D218  D(24,10,13,18)       -175.0482         calculate D2E/DX2 analytically  !
 ! D219  D(24,10,13,36)         35.7581         calculate D2E/DX2 analytically  !
 ! D220  D(24,10,13,37)         89.3644         calculate D2E/DX2 analytically  !
 ! D221  D(24,10,13,39)         68.6292         calculate D2E/DX2 analytically  !
 ! D222  D(9,10,24,17)         -86.9052         calculate D2E/DX2 analytically  !
 ! D223  D(9,10,24,25)         174.029          calculate D2E/DX2 analytically  !
 ! D224  D(9,10,24,26)         -10.5458         calculate D2E/DX2 analytically  !
 ! D225  D(9,10,24,28)          83.5211         calculate D2E/DX2 analytically  !
 ! D226  D(9,10,24,30)          64.7161         calculate D2E/DX2 analytically  !
 ! D227  D(9,10,24,33)        -175.5461         calculate D2E/DX2 analytically  !
 ! D228  D(9,10,24,36)        -134.4834         calculate D2E/DX2 analytically  !
 ! D229  D(13,10,24,17)         13.3454         calculate D2E/DX2 analytically  !
 ! D230  D(13,10,24,25)        -85.7204         calculate D2E/DX2 analytically  !
 ! D231  D(13,10,24,26)         89.7048         calculate D2E/DX2 analytically  !
 ! D232  D(13,10,24,28)       -176.2284         calculate D2E/DX2 analytically  !
 ! D233  D(13,10,24,30)        164.9667         calculate D2E/DX2 analytically  !
 ! D234  D(13,10,24,33)        -75.2955         calculate D2E/DX2 analytically  !
 ! D235  D(13,10,24,36)        -34.2328         calculate D2E/DX2 analytically  !
 ! D236  D(27,11,12,1)         121.8043         calculate D2E/DX2 analytically  !
 ! D237  D(27,11,12,2)          69.3071         calculate D2E/DX2 analytically  !
 ! D238  D(27,11,12,5)         176.0677         calculate D2E/DX2 analytically  !
 ! D239  D(27,11,12,14)       -107.3558         calculate D2E/DX2 analytically  !
 ! D240  D(27,11,12,15)        -30.5203         calculate D2E/DX2 analytically  !
 ! D241  D(12,11,27,15)         29.9704         calculate D2E/DX2 analytically  !
 ! D242  D(12,11,27,26)        -75.6674         calculate D2E/DX2 analytically  !
 ! D243  D(12,11,27,28)       -175.5792         calculate D2E/DX2 analytically  !
 ! D244  D(12,11,27,29)         98.322          calculate D2E/DX2 analytically  !
 ! D245  D(12,11,27,30)        179.4499         calculate D2E/DX2 analytically  !
 ! D246  D(1,12,14,21)          34.9486         calculate D2E/DX2 analytically  !
 ! D247  D(2,12,14,21)          86.2837         calculate D2E/DX2 analytically  !
 ! D248  D(5,12,14,21)         -20.5004         calculate D2E/DX2 analytically  !
 ! D249  D(9,12,14,21)          77.1509         calculate D2E/DX2 analytically  !
 ! D250  D(11,12,14,21)        -96.7131         calculate D2E/DX2 analytically  !
 ! D251  D(15,12,14,21)       -175.1496         calculate D2E/DX2 analytically  !
 ! D252  D(1,12,15,27)         -83.024          calculate D2E/DX2 analytically  !
 ! D253  D(2,12,15,27)         -85.6526         calculate D2E/DX2 analytically  !
 ! D254  D(5,12,15,27)         113.5917         calculate D2E/DX2 analytically  !
 ! D255  D(9,12,15,27)         -26.7359         calculate D2E/DX2 analytically  !
 ! D256  D(11,12,15,27)         30.8714         calculate D2E/DX2 analytically  !
 ! D257  D(14,12,15,27)       -174.5331         calculate D2E/DX2 analytically  !
 ! D258  D(7,13,17,24)          52.0568         calculate D2E/DX2 analytically  !
 ! D259  D(8,13,17,24)          96.7779         calculate D2E/DX2 analytically  !
 ! D260  D(10,13,17,24)         13.2366         calculate D2E/DX2 analytically  !
 ! D261  D(16,13,17,24)       -177.9247         calculate D2E/DX2 analytically  !
 ! D262  D(18,13,17,24)        173.8187         calculate D2E/DX2 analytically  !
 ! D263  D(37,13,17,24)        -72.321          calculate D2E/DX2 analytically  !
 ! D264  D(39,13,17,24)       -125.1855         calculate D2E/DX2 analytically  !
 ! D265  D(8,13,18,19)          89.9708         calculate D2E/DX2 analytically  !
 ! D266  D(8,13,18,20)         -16.416          calculate D2E/DX2 analytically  !
 ! D267  D(8,13,18,42)         147.4225         calculate D2E/DX2 analytically  !
 ! D268  D(8,13,18,43)        -156.2222         calculate D2E/DX2 analytically  !
 ! D269  D(10,13,18,19)        170.367          calculate D2E/DX2 analytically  !
 ! D270  D(10,13,18,20)         63.9802         calculate D2E/DX2 analytically  !
 ! D271  D(10,13,18,42)       -132.1813         calculate D2E/DX2 analytically  !
 ! D272  D(10,13,18,43)        -75.826          calculate D2E/DX2 analytically  !
 ! D273  D(17,13,18,19)         18.4315         calculate D2E/DX2 analytically  !
 ! D274  D(17,13,18,20)        -87.9554         calculate D2E/DX2 analytically  !
 ! D275  D(17,13,18,42)         75.8832         calculate D2E/DX2 analytically  !
 ! D276  D(17,13,18,43)        132.2385         calculate D2E/DX2 analytically  !
 ! D277  D(36,13,18,19)        -52.4658         calculate D2E/DX2 analytically  !
 ! D278  D(36,13,18,20)       -158.8526         calculate D2E/DX2 analytically  !
 ! D279  D(36,13,18,42)          4.9859         calculate D2E/DX2 analytically  !
 ! D280  D(36,13,18,43)         61.3413         calculate D2E/DX2 analytically  !
 ! D281  D(37,13,18,19)        -97.6301         calculate D2E/DX2 analytically  !
 ! D282  D(37,13,18,20)        155.9831         calculate D2E/DX2 analytically  !
 ! D283  D(37,13,18,42)        -40.1784         calculate D2E/DX2 analytically  !
 ! D284  D(37,13,18,43)         16.177          calculate D2E/DX2 analytically  !
 ! D285  D(39,13,18,19)        -48.9859         calculate D2E/DX2 analytically  !
 ! D286  D(39,13,18,20)       -155.3728         calculate D2E/DX2 analytically  !
 ! D287  D(39,13,18,42)          8.4657         calculate D2E/DX2 analytically  !
 ! D288  D(39,13,18,43)         64.8211         calculate D2E/DX2 analytically  !
 ! D289  D(7,13,36,24)         -99.9006         calculate D2E/DX2 analytically  !
 ! D290  D(7,13,36,25)         -53.6848         calculate D2E/DX2 analytically  !
 ! D291  D(7,13,36,33)         -99.4077         calculate D2E/DX2 analytically  !
 ! D292  D(7,13,36,35)        -165.0136         calculate D2E/DX2 analytically  !
 ! D293  D(7,13,36,38)         110.5194         calculate D2E/DX2 analytically  !
 ! D294  D(8,13,36,24)          47.4688         calculate D2E/DX2 analytically  !
 ! D295  D(8,13,36,25)          93.6846         calculate D2E/DX2 analytically  !
 ! D296  D(8,13,36,33)          47.9617         calculate D2E/DX2 analytically  !
 ! D297  D(8,13,36,35)         -17.6443         calculate D2E/DX2 analytically  !
 ! D298  D(8,13,36,38)        -102.1112         calculate D2E/DX2 analytically  !
 ! D299  D(10,13,36,24)        -29.3545         calculate D2E/DX2 analytically  !
 ! D300  D(10,13,36,25)         16.8613         calculate D2E/DX2 analytically  !
 ! D301  D(10,13,36,33)        -28.8616         calculate D2E/DX2 analytically  !
 ! D302  D(10,13,36,35)        -94.4676         calculate D2E/DX2 analytically  !
 ! D303  D(10,13,36,38)       -178.9345         calculate D2E/DX2 analytically  !
 ! D304  D(16,13,36,24)        133.2829         calculate D2E/DX2 analytically  !
 ! D305  D(16,13,36,25)        179.4986         calculate D2E/DX2 analytically  !
 ! D306  D(16,13,36,33)        133.7757         calculate D2E/DX2 analytically  !
 ! D307  D(16,13,36,35)         68.1698         calculate D2E/DX2 analytically  !
 ! D308  D(16,13,36,38)        -16.2972         calculate D2E/DX2 analytically  !
 ! D309  D(18,13,36,24)        179.2397         calculate D2E/DX2 analytically  !
 ! D310  D(18,13,36,25)       -134.5445         calculate D2E/DX2 analytically  !
 ! D311  D(18,13,36,33)        179.7326         calculate D2E/DX2 analytically  !
 ! D312  D(18,13,36,35)        114.1266         calculate D2E/DX2 analytically  !
 ! D313  D(18,13,36,38)         29.6597         calculate D2E/DX2 analytically  !
 ! D314  D(7,13,39,38)        -167.9029         calculate D2E/DX2 analytically  !
 ! D315  D(7,13,39,40)         -18.5405         calculate D2E/DX2 analytically  !
 ! D316  D(7,13,39,41)          63.5841         calculate D2E/DX2 analytically  !
 ! D317  D(8,13,39,38)          81.4562         calculate D2E/DX2 analytically  !
 ! D318  D(8,13,39,40)        -129.1814         calculate D2E/DX2 analytically  !
 ! D319  D(8,13,39,41)         -47.0568         calculate D2E/DX2 analytically  !
 ! D320  D(10,13,39,38)        -68.3105         calculate D2E/DX2 analytically  !
 ! D321  D(10,13,39,40)         81.0519         calculate D2E/DX2 analytically  !
 ! D322  D(10,13,39,41)        163.1765         calculate D2E/DX2 analytically  !
 ! D323  D(17,13,39,38)         11.1209         calculate D2E/DX2 analytically  !
 ! D324  D(17,13,39,40)        160.4833         calculate D2E/DX2 analytically  !
 ! D325  D(17,13,39,41)       -117.3921         calculate D2E/DX2 analytically  !
 ! D326  D(18,13,39,38)        153.2754         calculate D2E/DX2 analytically  !
 ! D327  D(18,13,39,40)        -57.3622         calculate D2E/DX2 analytically  !
 ! D328  D(18,13,39,41)         24.7625         calculate D2E/DX2 analytically  !
 ! D329  D(12,14,21,1)         -33.6048         calculate D2E/DX2 analytically  !
 ! D330  D(12,14,21,5)          22.7499         calculate D2E/DX2 analytically  !
 ! D331  D(12,14,21,22)        144.3646         calculate D2E/DX2 analytically  !
 ! D332  D(12,14,21,23)        -90.0882         calculate D2E/DX2 analytically  !
 ! D333  D(12,15,27,9)          22.994          calculate D2E/DX2 analytically  !
 ! D334  D(12,15,27,11)        -30.1204         calculate D2E/DX2 analytically  !
 ! D335  D(12,15,27,26)         78.4408         calculate D2E/DX2 analytically  !
 ! D336  D(12,15,27,28)        -98.9325         calculate D2E/DX2 analytically  !
 ! D337  D(12,15,27,29)        172.0138         calculate D2E/DX2 analytically  !
 ! D338  D(12,15,27,30)        179.1686         calculate D2E/DX2 analytically  !
 ! D339  D(39,16,18,7)          81.16           calculate D2E/DX2 analytically  !
 ! D340  D(39,16,18,19)       -102.6002         calculate D2E/DX2 analytically  !
 ! D341  D(39,16,18,20)        174.4441         calculate D2E/DX2 analytically  !
 ! D342  D(39,16,18,42)        -57.1218         calculate D2E/DX2 analytically  !
 ! D343  D(39,16,18,43)        -21.6786         calculate D2E/DX2 analytically  !
 ! D344  D(18,16,39,36)       -117.2274         calculate D2E/DX2 analytically  !
 ! D345  D(18,16,39,37)        -62.3924         calculate D2E/DX2 analytically  !
 ! D346  D(18,16,39,38)       -173.587          calculate D2E/DX2 analytically  !
 ! D347  D(18,16,39,40)         55.1946         calculate D2E/DX2 analytically  !
 ! D348  D(18,16,39,41)         91.9601         calculate D2E/DX2 analytically  !
 ! D349  D(13,17,24,10)        -13.4081         calculate D2E/DX2 analytically  !
 ! D350  D(13,17,24,25)         68.0137         calculate D2E/DX2 analytically  !
 ! D351  D(13,17,24,26)        -96.8034         calculate D2E/DX2 analytically  !
 ! D352  D(13,17,24,28)        -47.2029         calculate D2E/DX2 analytically  !
 ! D353  D(13,17,24,30)       -161.8688         calculate D2E/DX2 analytically  !
 ! D354  D(13,17,24,32)        177.0926         calculate D2E/DX2 analytically  !
 ! D355  D(13,17,24,33)        122.5387         calculate D2E/DX2 analytically  !
 ! D356  D(7,18,20,6)           31.6892         calculate D2E/DX2 analytically  !
 ! D357  D(13,18,20,6)         -21.5267         calculate D2E/DX2 analytically  !
 ! D358  D(16,18,20,6)         -81.2585         calculate D2E/DX2 analytically  !
 ! D359  D(19,18,20,6)        -160.1711         calculate D2E/DX2 analytically  !
 ! D360  D(42,18,20,6)         175.7001         calculate D2E/DX2 analytically  !
 ! D361  D(43,18,20,6)         113.6383         calculate D2E/DX2 analytically  !
 ! D362  D(7,18,42,40)         -54.8041         calculate D2E/DX2 analytically  !
 ! D363  D(7,18,42,41)        -103.9449         calculate D2E/DX2 analytically  !
 ! D364  D(7,18,42,44)          85.0199         calculate D2E/DX2 analytically  !
 ! D365  D(13,18,42,40)         18.1344         calculate D2E/DX2 analytically  !
 ! D366  D(13,18,42,41)        -31.0064         calculate D2E/DX2 analytically  !
 ! D367  D(13,18,42,44)        157.9585         calculate D2E/DX2 analytically  !
 ! D368  D(16,18,42,40)         67.5641         calculate D2E/DX2 analytically  !
 ! D369  D(16,18,42,41)         18.4232         calculate D2E/DX2 analytically  !
 ! D370  D(16,18,42,44)       -152.6119         calculate D2E/DX2 analytically  !
 ! D371  D(20,18,42,40)        179.1553         calculate D2E/DX2 analytically  !
 ! D372  D(20,18,42,41)        130.0144         calculate D2E/DX2 analytically  !
 ! D373  D(20,18,42,44)        -41.0207         calculate D2E/DX2 analytically  !
 ! D374  D(10,24,26,9)          10.5899         calculate D2E/DX2 analytically  !
 ! D375  D(10,24,26,27)         86.1132         calculate D2E/DX2 analytically  !
 ! D376  D(17,24,26,9)          95.9311         calculate D2E/DX2 analytically  !
 ! D377  D(17,24,26,27)        171.4544         calculate D2E/DX2 analytically  !
 ! D378  D(25,24,26,9)          27.1097         calculate D2E/DX2 analytically  !
 ! D379  D(25,24,26,27)        102.6329         calculate D2E/DX2 analytically  !
 ! D380  D(28,24,26,9)         -71.0167         calculate D2E/DX2 analytically  !
 ! D381  D(28,24,26,27)          4.5066         calculate D2E/DX2 analytically  !
 ! D382  D(30,24,26,9)        -122.5258         calculate D2E/DX2 analytically  !
 ! D383  D(30,24,26,27)        -47.0025         calculate D2E/DX2 analytically  !
 ! D384  D(32,24,26,9)        -175.0054         calculate D2E/DX2 analytically  !
 ! D385  D(32,24,26,27)        -99.4821         calculate D2E/DX2 analytically  !
 ! D386  D(33,24,26,9)         174.4339         calculate D2E/DX2 analytically  !
 ! D387  D(33,24,26,27)       -110.0428         calculate D2E/DX2 analytically  !
 ! D388  D(36,24,26,9)          87.2483         calculate D2E/DX2 analytically  !
 ! D389  D(36,24,26,27)        162.7716         calculate D2E/DX2 analytically  !
 ! D390  D(10,24,28,27)        -85.7554         calculate D2E/DX2 analytically  !
 ! D391  D(17,24,28,27)        -51.838          calculate D2E/DX2 analytically  !
 ! D392  D(25,24,28,27)       -168.2311         calculate D2E/DX2 analytically  !
 ! D393  D(26,24,28,27)         -4.2113         calculate D2E/DX2 analytically  !
 ! D394  D(32,24,28,27)         82.124          calculate D2E/DX2 analytically  !
 ! D395  D(33,24,28,27)        138.6822         calculate D2E/DX2 analytically  !
 ! D396  D(36,24,28,27)       -155.4616         calculate D2E/DX2 analytically  !
 ! D397  D(10,24,30,27)        -36.5402         calculate D2E/DX2 analytically  !
 ! D398  D(10,24,30,29)        -69.7979         calculate D2E/DX2 analytically  !
 ! D399  D(10,24,30,31)        101.2676         calculate D2E/DX2 analytically  !
 ! D400  D(17,24,30,27)         99.6759         calculate D2E/DX2 analytically  !
 ! D401  D(17,24,30,29)         66.4182         calculate D2E/DX2 analytically  !
 ! D402  D(17,24,30,31)       -122.5163         calculate D2E/DX2 analytically  !
 ! D403  D(25,24,30,27)       -133.731          calculate D2E/DX2 analytically  !
 ! D404  D(25,24,30,29)       -166.9887         calculate D2E/DX2 analytically  !
 ! D405  D(25,24,30,31)          4.0768         calculate D2E/DX2 analytically  !
 ! D406  D(26,24,30,27)         37.6961         calculate D2E/DX2 analytically  !
 ! D407  D(26,24,30,29)          4.4384         calculate D2E/DX2 analytically  !
 ! D408  D(26,24,30,31)        175.504          calculate D2E/DX2 analytically  !
 ! D409  D(33,24,30,27)       -178.4195         calculate D2E/DX2 analytically  !
 ! D410  D(33,24,30,29)        148.3228         calculate D2E/DX2 analytically  !
 ! D411  D(33,24,30,31)        -40.6116         calculate D2E/DX2 analytically  !
 ! D412  D(36,24,30,27)        175.1441         calculate D2E/DX2 analytically  !
 ! D413  D(36,24,30,29)        141.8864         calculate D2E/DX2 analytically  !
 ! D414  D(36,24,30,31)        -47.0481         calculate D2E/DX2 analytically  !
 ! D415  D(10,24,33,34)       -150.3582         calculate D2E/DX2 analytically  !
 ! D416  D(10,24,33,35)         81.6536         calculate D2E/DX2 analytically  !
 ! D417  D(17,24,33,34)        125.0969         calculate D2E/DX2 analytically  !
 ! D418  D(17,24,33,35)         -2.8914         calculate D2E/DX2 analytically  !
 ! D419  D(26,24,33,34)         53.0345         calculate D2E/DX2 analytically  !
 ! D420  D(26,24,33,35)        -74.9537         calculate D2E/DX2 analytically  !
 ! D421  D(28,24,33,34)        -58.0094         calculate D2E/DX2 analytically  !
 ! D422  D(28,24,33,35)        174.0023         calculate D2E/DX2 analytically  !
 ! D423  D(30,24,33,34)        -12.2802         calculate D2E/DX2 analytically  !
 ! D424  D(30,24,33,35)       -140.2684         calculate D2E/DX2 analytically  !
 ! D425  D(10,24,36,13)         29.9191         calculate D2E/DX2 analytically  !
 ! D426  D(10,24,36,35)       -177.2682         calculate D2E/DX2 analytically  !
 ! D427  D(10,24,36,37)        -15.681          calculate D2E/DX2 analytically  !
 ! D428  D(10,24,36,38)        118.7979         calculate D2E/DX2 analytically  !
 ! D429  D(10,24,36,39)         35.3968         calculate D2E/DX2 analytically  !
 ! D430  D(26,24,36,13)        -46.1558         calculate D2E/DX2 analytically  !
 ! D431  D(26,24,36,35)        106.6569         calculate D2E/DX2 analytically  !
 ! D432  D(26,24,36,37)        -91.7559         calculate D2E/DX2 analytically  !
 ! D433  D(26,24,36,38)         42.723          calculate D2E/DX2 analytically  !
 ! D434  D(26,24,36,39)        -40.6781         calculate D2E/DX2 analytically  !
 ! D435  D(28,24,36,13)         99.271          calculate D2E/DX2 analytically  !
 ! D436  D(28,24,36,35)       -107.9163         calculate D2E/DX2 analytically  !
 ! D437  D(28,24,36,37)         53.6708         calculate D2E/DX2 analytically  !
 ! D438  D(28,24,36,38)       -171.8502         calculate D2E/DX2 analytically  !
 ! D439  D(28,24,36,39)        104.7487         calculate D2E/DX2 analytically  !
 ! D440  D(30,24,36,13)       -173.4974         calculate D2E/DX2 analytically  !
 ! D441  D(30,24,36,35)        -20.6846         calculate D2E/DX2 analytically  !
 ! D442  D(30,24,36,37)        140.9025         calculate D2E/DX2 analytically  !
 ! D443  D(30,24,36,38)        -84.6186         calculate D2E/DX2 analytically  !
 ! D444  D(30,24,36,39)       -168.0197         calculate D2E/DX2 analytically  !
 ! D445  D(32,24,36,13)       -136.66           calculate D2E/DX2 analytically  !
 ! D446  D(32,24,36,35)         16.1528         calculate D2E/DX2 analytically  !
 ! D447  D(32,24,36,37)        177.7399         calculate D2E/DX2 analytically  !
 ! D448  D(32,24,36,38)        -47.7812         calculate D2E/DX2 analytically  !
 ! D449  D(32,24,36,39)       -131.1823         calculate D2E/DX2 analytically  !
 ! D450  D(24,25,33,36)        -80.0607         calculate D2E/DX2 analytically  !
 ! D451  D(24,26,27,11)        -89.9101         calculate D2E/DX2 analytically  !
 ! D452  D(24,26,27,15)        176.5536         calculate D2E/DX2 analytically  !
 ! D453  D(24,26,27,28)         -4.6752         calculate D2E/DX2 analytically  !
 ! D454  D(24,26,27,29)         92.5142         calculate D2E/DX2 analytically  !
 ! D455  D(24,26,27,30)         44.9624         calculate D2E/DX2 analytically  !
 ! D456  D(9,27,28,24)          61.2061         calculate D2E/DX2 analytically  !
 ! D457  D(11,27,28,24)        111.9525         calculate D2E/DX2 analytically  !
 ! D458  D(15,27,28,24)       -177.7241         calculate D2E/DX2 analytically  !
 ! D459  D(26,27,28,24)          4.865          calculate D2E/DX2 analytically  !
 ! D460  D(29,27,28,24)        -91.841          calculate D2E/DX2 analytically  !
 ! D461  D(9,27,30,24)          -3.4517         calculate D2E/DX2 analytically  !
 ! D462  D(9,27,30,31)        -142.7013         calculate D2E/DX2 analytically  !
 ! D463  D(9,27,30,32)          40.9487         calculate D2E/DX2 analytically  !
 ! D464  D(11,27,30,24)         69.7916         calculate D2E/DX2 analytically  !
 ! D465  D(11,27,30,31)        -69.458          calculate D2E/DX2 analytically  !
 ! D466  D(11,27,30,32)        114.192          calculate D2E/DX2 analytically  !
 ! D467  D(15,27,30,24)       -152.0701         calculate D2E/DX2 analytically  !
 ! D468  D(15,27,30,31)         68.6803         calculate D2E/DX2 analytically  !
 ! D469  D(15,27,30,32)       -107.6697         calculate D2E/DX2 analytically  !
 ! D470  D(26,27,30,24)        -43.5486         calculate D2E/DX2 analytically  !
 ! D471  D(26,27,30,31)        177.2018         calculate D2E/DX2 analytically  !
 ! D472  D(26,27,30,32)          0.8517         calculate D2E/DX2 analytically  !
 ! D473  D(24,30,31,45)         24.2325         calculate D2E/DX2 analytically  !
 ! D474  D(27,30,31,45)        137.9095         calculate D2E/DX2 analytically  !
 ! D475  D(28,30,31,45)         82.6281         calculate D2E/DX2 analytically  !
 ! D476  D(29,30,31,45)       -164.3318         calculate D2E/DX2 analytically  !
 ! D477  D(32,30,31,45)        -46.0496         calculate D2E/DX2 analytically  !
 ! D478  D(27,30,32,33)       -115.3348         calculate D2E/DX2 analytically  !
 ! D479  D(28,30,32,33)        -58.0519         calculate D2E/DX2 analytically  !
 ! D480  D(29,30,32,33)       -173.1534         calculate D2E/DX2 analytically  !
 ! D481  D(31,30,32,33)         67.4716         calculate D2E/DX2 analytically  !
 ! D482  D(30,31,45,34)         53.2844         calculate D2E/DX2 analytically  !
 ! D483  D(30,31,45,46)        -62.9424         calculate D2E/DX2 analytically  !
 ! D484  D(30,31,45,47)        174.7329         calculate D2E/DX2 analytically  !
 ! D485  D(30,32,33,25)         65.3252         calculate D2E/DX2 analytically  !
 ! D486  D(30,32,33,34)        -86.4401         calculate D2E/DX2 analytically  !
 ! D487  D(30,32,33,35)        173.234          calculate D2E/DX2 analytically  !
[...]
 4563,-0.00007421,-0.00004872,0.00004607,-0.00005779,0.00001319,-0.0000
 0706,-0.00000531,0.00007090,0.00006181,0.00033009,0.00035189,-0.000216
 86,-0.00001045,-0.00000407,-0.00002287,-0.00002471,-0.00000434,0.00000
 093,-0.00006381,0.00000221,-0.00005231,-0.00003559,-0.00006929,-0.0000
 1562,-0.00650955,0.00204467,-0.00318076,-0.00061697,0.00039928,-0.0010
 5083,0.00050240,-0.00012169,-0.00044349,0.00016445,-0.00020401,0.00009
 283,-0.00008117,0.00017558,-0.00006071,0.00000340,0.00000162,-0.000035
 13,-0.00011300,0.00004791,-0.00010410,0.00004187,0.00002783,-0.0000287
 8,0.00007336,-0.00000593,-0.00001471,-0.00001400,0.00004526,0.00007036
 ,-0.00000392,0.00002169,0.00000290,-0.00002770,-0.00000500,-0.00005033
 ,0.00013535,0.00002132,-0.00002254,-0.00002480,-0.00005399,0.00010890,
 0.00001231,-0.00001012,0.00001115,0.00002666,0.00015649,-0.00008517,-0
 .00011306,-0.00003129,0.00008088,0.00006895,-0.00004172,-0.00004294,0.
 00018849,-0.00024666,0.00011401,-0.00005381,0.00014967,-0.00008995,-0.
 00008343,-0.00059126,0.00001507,-0.00039387,-0.00004749,-0.00040226,0.
 00052270,0.00032272,0.00024028,-0.00393296,0.00031306,-0.00159043,-0.0
 7684113,-0.04801521,-0.01548910,0.00275057,0.00334708,0.00105336,0.084
 48300,0.04215633,-0.00006466,-0.00000756,-0.00008956,0.00002083,0.0000
 0392,0.00000130,-0.00001484,0.00002938,-0.00000536,0.00002846,0.000008
 21,-0.00005956,-0.00002595,-0.00000218,0.00002342,0.00043361,0.0001506
 5,-0.00000694,-0.00030743,0.00019086,-0.00003970,0.00001711,-0.0000704
 2,0.00002412,-0.00025012,-0.00013432,0.00000728,-0.00005629,-0.0000045
 0,-0.00000814,-0.00002882,0.00001026,-0.00002360,0.00001317,0.00005886
 ,0.00003994,-0.00029334,-0.00059102,0.00022756,-0.00001311,-0.00001209
 ,-0.00001086,-0.00000721,-0.00002181,0.00002621,0.00032390,0.00036177,
 0.00067199,0.00000036,0.00006392,-0.00006886,0.00314474,-0.00083427,0.
 00088178,-0.01084565,-0.00293816,-0.00504573,-0.00016859,0.00021573,-0
 .00048137,0.00011409,-0.00010735,0.00004901,-0.00004383,0.00009484,-0.
 00003301,-0.00000215,0.00000892,-0.00002573,0.00008120,-0.00003481,0.0
 0000707,0.00000899,-0.00004961,0.00002074,0.00006531,-0.00000937,-0.00
 001357,-0.00004668,0.00008313,0.00002545,-0.00001376,0.00002989,-0.000
 00630,-0.00001353,-0.00000901,-0.00001445,0.00008593,-0.00001858,-0.00
 005645,-0.00001558,-0.00002512,0.00007976,-0.00001881,0.00000535,0.000
 01370,-0.00003458,0.00001645,-0.00002130,-0.00003041,-0.00000210,0.000
 01296,0.00003938,0.00001247,0.00002242,-0.00013402,0.00030409,0.000000
 98,0.00016214,-0.00017740,0.00009022,0.00024283,0.00016063,-0.00009034
 ,-0.00310078,-0.00096203,0.00061511,0.00039917,0.00046345,0.00084540,0
 .00148120,-0.00137324,0.00017599,-0.04359302,-0.01871517,-0.02565418,-
 0.00144051,0.00285407,0.00100993,0.05394033,0.02097394,0.02690638,0.00
 027217,-0.00021434,-0.00144929,0.00045243,0.00045215,-0.00021437,-0.00
 018576,0.00020543,-0.00002805,-0.00000436,-0.00011949,0.00018684,-0.00
 026418,-0.00015733,0.00031639,0.00055829,-0.00013079,0.00036676,0.0001
 6848,0.00043599,-0.00019129,-0.00003260,-0.00010164,0.00003949,-0.0018
 6226,-0.00119196,0.00020734,0.00052246,-0.00003705,0.00040345,-0.00057
 928,-0.00034457,0.00007301,0.00045514,0.00100522,-0.00011273,0.0004664
 4,0.00095765,-0.00035167,-0.00007043,-0.00011596,-0.00002034,0.0004774
 7,0.00069772,-0.00001614,0.00012602,-0.00016678,0.00005969,0.00032355,
 0.00017603,0.00065469,0.00026591,0.00013856,0.00024915,-0.00005981,0.0
 0000959,-0.00009710,-0.00045775,0.00015089,-0.00002842,0.00035682,0.00
 011440,0.00011341,-0.00001072,-0.00001447,0.00000113,0.00009859,-0.000
 03783,0.00002959,-0.00612576,0.00242142,-0.00393711,-0.00139669,-0.001
 15394,0.00105908,0.00040679,-0.00004461,-0.00013632,0.00033889,-0.0017
 4125,0.00201534,-0.00021040,0.00072327,0.00100023,0.00093220,0.0008406
 9,-0.00012692,0.01397779,0.00124439,-0.00944022,-0.05067051,0.00504121
 ,-0.02551993,0.00099605,0.00268932,0.00085667,-0.02395003,-0.01726622,
 0.00791396,-0.05100945,0.05087097,0.01517163,-0.00102965,0.00026982,0.
 00072895,0.00527810,0.00207450,-0.00116874,-0.00027317,-0.00019285,-0.
 00031696,-0.00060856,0.00003582,0.00020656,-0.00115434,-0.00065199,0.0
 0008740,0.00006708,-0.00002405,0.00005586,0.00009909,0.00008276,-0.000
 00039,-0.00003111,-0.00013376,-0.00005029,-0.00022729,-0.00017945,0.00
 001201,0.00008635,0.00005512,-0.00000868,0.28811602,-0.00005729,0.0000
 8871,0.00072004,-0.00017265,-0.00032199,0.00010625,0.00002601,-0.00009
 070,0.00004621,-0.00008959,0.00007837,-0.00008072,0.00013701,0.0000918
 3,-0.00014150,-0.00025475,0.00002644,-0.00019946,-0.00012024,-0.000249
 25,0.00002520,-0.00003189,0.00003609,-0.00000509,0.00120431,0.00060692
 ,-0.00065141,-0.00059409,-0.00032696,0.00011906,0.00012852,0.00003271,
 0.00012668,-0.00054240,-0.00072114,0.00042045,-0.00033761,-0.00047156,
 -0.00011964,0.00003712,0.00005769,-0.00000773,-0.00021839,-0.00051316,
 0.00008561,-0.00006914,0.00008938,0.00001931,-0.00009739,-0.00030876,-
 0.00058365,-0.00001405,-0.00005536,-0.00020460,0.00003254,-0.00001675,
 0.00000664,0.00021464,-0.00006566,0.00008240,-0.00019420,-0.00016327,-
 0.00000093,-0.00002441,0.00006660,-0.00002398,-0.00002690,0.00001290,-
 0.00002998,0.00461676,-0.00211214,0.00072389,0.00272095,-0.00290551,-0
 .00309685,0.00004323,0.00030361,0.00012210,0.00036976,0.00164179,-0.00
 114107,-0.00025862,-0.00265241,0.00141518,-0.00164321,-0.00190791,-0.0
 0110461,-0.00256508,0.00077900,0.01013906,0.00874462,-0.01802504,0.008
 91549,-0.00160328,-0.00164883,-0.00102176,-0.00023178,0.03197345,0.004
 80020,0.03259839,-0.08016851,-0.01207516,0.00048716,-0.00216105,0.0002
 2176,-0.00187579,0.00155221,-0.00022473,0.00008806,-0.00013146,0.00026
 318,0.00050009,-0.00010018,0.00026244,0.00027946,0.00006900,0.00012004
 ,0.00001009,-0.00000018,0.00000467,-0.00000995,-0.00003533,-0.00000667
 ,-0.00004528,0.00003783,0.00006860,0.00010033,0.00006056,-0.00000947,0
 .00000665,-0.00000603,0.00001923,0.09397579,0.29929595,0.00020154,-0.0
 0011966,-0.00073998,0.00021402,0.00020097,-0.00011309,-0.00011037,0.00
 002758,0.00005247,-0.00007006,-0.00010535,0.00017374,-0.00014549,-0.00
 012022,0.00013639,0.00041903,0.00017848,-0.00013233,0.00014298,0.00009
 387,-0.00001148,0.00002764,-0.00001737,-0.00000183,-0.00094133,-0.0006
 6381,0.00019567,-0.00004104,-0.00024759,0.00021623,-0.00016548,-0.0002
 5580,0.00015489,0.00039561,0.00072150,-0.00033114,0.00027705,-0.000017
 40,0.00009436,-0.00005362,-0.00015503,0.00007312,0.00029143,0.00047163
 ,0.00007250,0.00006093,-0.00006015,-0.00006179,0.00047456,0.00062336,0
 .00064584,-0.00003667,0.00015204,0.00014235,0.00001501,0.00002547,0.00
 003717,-0.00026420,0.00000768,-0.00002237,0.00003287,0.00049645,-0.000
 00342,0.00014804,-0.00034492,0.00012196,0.00009652,-0.00005768,0.00006
 993,-0.00385273,-0.00061646,-0.00262530,0.00073216,0.00232064,0.000122
 10,0.00057760,0.00000643,-0.00010652,-0.00064421,-0.00271813,0.0023270
 4,-0.00080787,-0.00030302,-0.00007820,0.00041136,-0.00040116,-0.000726
 09,0.01491780,0.00911888,-0.01503689,-0.05054664,0.01399225,-0.0616331
 1,0.00231806,0.00169394,0.00087600,-0.00074868,0.00264839,-0.00455884,
 0.02173882,-0.02268459,-0.01938693,-0.00004596,-0.00175208,0.00060190,
 0.00127204,-0.00061420,-0.00016735,-0.00020746,0.00013752,-0.00015805,
 -0.00018359,0.00014853,0.00015455,-0.00031168,-0.00040664,0.00034627,-
 0.00002625,-0.00003988,-0.00005123,-0.00005316,0.00004753,0.00004285,0
 .00033822,0.00008766,-0.00002250,-0.00015298,-0.00008292,-0.00006076,-
 0.00028303,-0.00013342,-0.00007673,-0.07045445,-0.00393512,0.30085314,
 -0.00012724,0.00003625,0.00018896,-0.00010661,-0.00005043,-0.00001603,
 0.00006993,-0.00003076,-0.00001306,0.00002963,0.00003061,-0.00002403,0
 .00002898,0.00001541,-0.00005045,-0.00011599,0.00001621,-0.00000730,0.
 00000017,-0.00005939,0.00000848,0.00001212,0.00001068,0.00000077,0.000
 34211,0.00014319,0.00024221,0.00016334,0.00018709,-0.00034887,0.000065
 32,0.00010459,-0.00004123,0.00009229,-0.00002912,-0.00009359,0.0001253
 3,-0.00006671,0.00028642,0.00000669,0.00002194,-0.00000318,-0.00007105
 ,-0.00015981,0.00000476,-0.00002323,0.00002205,-0.00004402,0.00004286,
 -0.00002980,-0.00005277,-0.00004645,-0.00002075,0.00001162,0.00000695,
 0.00001041,0.00002160,0.00007478,-0.00002703,-0.00002616,-0.00001875,-
 0.00004685,0.00000072,-0.00001659,0.00003885,-0.00001399,-0.00001978,0
 .00000732,-0.00000767,-0.00114230,0.00010265,0.00063729,-0.00635377,-0
 .00054639,0.00537438,-0.00001724,0.00009482,0.00003948,0.00016877,0.00
 006230,-0.00016305,-0.00012172,0.00035146,0.00043352,0.00011066,0.0004
 0805,0.00035548,-0.00369724,-0.00183698,0.00047313,-0.00190403,0.00022
 960,-0.00843735,0.00041803,0.00024151,0.00027349,0.00492848,-0.0134438
 4,-0.00647853,0.01463600,0.00773244,0.00121391,-0.00043024,0.00297026,
 -0.00096729,-0.00011950,-0.00152287,0.00053002,0.00016470,0.00010799,-
 0.00000036,-0.00005510,0.00007167,-0.00019655,0.00016178,0.00035418,-0
 .00022464,-0.00001439,0.00003223,-0.00000212,-0.00003518,-0.00004594,0
 .00000480,-0.00004497,-0.00000422,-0.00000057,0.00004949,0.00003259,-0
 .00000481,0.00002845,0.00001061,0.00001106,-0.06667065,-0.08083264,-0.
 02709109,0.06533546,-0.00005179,0.00001764,0.00007350,-0.00003396,0.00
 004264,0.00002812,0.00003951,-0.00001450,-0.00001839,0.00004656,0.0000
 1877,-0.00000777,0.00000166,0.00002817,-0.00004819,-0.00008284,0.00002
 158,0.00001015,-0.00001292,-0.00001855,0.00002453,0.00002835,-0.000013
 51,0.00001085,-0.00004591,0.00009886,0.00012839,0.00011988,0.00020175,
 -0.00012181,0.00003269,0.00007872,-0.00014801,0.00020855,-0.00003656,-
 0.00008845,0.00003718,0.00000884,-0.00003675,0.00000473,0.00000484,-0.
 00000395,-0.00010762,-0.00018387,0.00003239,-0.00002340,0.00000818,0.0
 0001267,-0.00025068,-0.00008712,-0.00011426,-0.00002071,-0.00001268,0.
 00000005,-0.00000050,0.00000474,0.00001480,0.00003934,-0.00001275,-0.0
 0002256,0.00000415,-0.00002466,0.00000198,-0.00001223,0.00003260,-0.00
 001118,-0.00001637,0.00000795,-0.00000202,0.00074495,0.00005549,0.0007
 1425,-0.00166271,-0.00004952,0.00175816,-0.00018557,-0.00016832,-0.000
 07602,-0.00000331,0.00024283,-0.00004150,-0.00000108,0.00090731,0.0000
 6174,0.00058626,0.00063763,0.00030154,-0.00474936,-0.00253925,0.000889
 40,-0.00063913,0.00700060,-0.00984239,-0.00024145,-0.00022148,0.000236
 77,0.00181161,-0.00707648,-0.00139272,0.00599756,-0.00922676,-0.006385
 87,-0.00005344,0.00085738,-0.00020896,0.00043924,0.00051299,0.00058869
 ,0.00022317,-0.00008559,-0.00002455,-0.00029886,-0.00004273,-0.0001977
 3,0.00001849,0.00031640,-0.00016795,-0.00001032,0.00001559,-0.00001952
 ,0.00000522,-0.00004904,-0.00000024,-0.00004185,-0.00001782,-0.0000170
 7,0.00002169,0.00003042,0.00001168,0.00003505,0.00001559,0.00001030,-0
 .08556792,-0.17050231,-0.05945007,0.09128372,0.18289166,-0.00003914,0.
 00003169,0.00014451,-0.00004423,-0.00005177,0.00004078,0.00001527,-0.0
 0000072,-0.00001260,0.00006164,0.00000420,-0.00003982,0.00003042,-0.00
 001253,-0.00004022,-0.00002964,0.00001212,0.00001534,-0.00000286,-0.00
 001943,0.00000437,0.00000473,0.00000194,0.00000781,0.00012805,0.000092
 34,0.00005210,-0.00000817,-0.00002960,-0.00003425,0.00006670,0.0001182
 6,-0.00019912,-0.00002378,0.00010876,0.00000141,0.00005686,0.00003137,
 -0.00011838,0.00000805,0.00002911,-0.00000236,0.00016002,-0.00010313,0
 .00015999,-0.00001594,0.00001397,0.00002891,-0.00002799,-0.00014188,-0
 .00000910,-0.00000903,0.00000583,-0.00001167,-0.00000765,0.00000324,-0
 .00000169,0.00001741,-0.00000180,-0.00001170,0.00001207,-0.00002197,-0
 .00004709,-0.00000362,0.00001868,-0.00000465,-0.00003313,0.00001025,-0
 .00000516,0.00140251,0.00074101,-0.00086033,0.00344310,0.00058307,-0.0
 0171497,-0.00012867,-0.00004715,0.00008121,-0.00042113,-0.00016561,-0.
 00015036,0.00050644,0.00021323,-0.00013005,-0.00021776,-0.00016825,0.0
 0016486,-0.00084617,-0.00111093,0.00082367,-0.00437753,-0.00430578,-0.
 00459425,-0.00005768,-0.00012550,-0.00044223,-0.00354825,0.00158995,0.
 00112645,0.00101080,-0.00377830,-0.00146155,0.00051170,-0.00100813,0.0
 0037304,-0.00029525,0.00077937,-0.00002197,0.00007611,-0.00008966,0.00
 001695,-0.00002127,-0.00001220,0.00001263,0.00002851,-0.00004337,-0.00
 004596,0.00000103,-0.00000415,-0.00001243,0.00002467,0.00000079,-0.000
 01059,-0.00001493,-0.00002220,-0.00000225,0.00000569,0.00000757,0.0000
 0753,0.00002164,0.00001054,0.00000356,-0.02780792,-0.06263334,-0.04587
 135,0.03136649,0.06317538,0.04220665,0.00010476,-0.00005064,-0.0000956
 7,0.00002852,0.00004087,-0.00002235,-0.00003752,-0.00002123,0.00004778
 ,-0.00003078,0.00000178,0.00000577,-0.00000494,-0.00004034,-0.00000563
 ,0.00005604,0.00007857,-0.00011208,-0.00000954,-0.00006286,0.00002429,
 0.00001825,0.00001311,-0.00001977,-0.00021665,-0.00006133,0.00003399,-
 0.00012126,0.00003291,0.00004511,-0.00001065,-0.00004229,-0.00013026,0
 .00004645,0.00018883,-0.00001627,-0.00005858,-0.00016620,0.00006501,0.
 00000199,-0.00003259,0.00004064,0.00018029,-0.00002632,0.00012220,-0.0
 0001827,0.00002410,-0.00001630,-0.00004200,-0.00001713,-0.00010071,-0.
 00009363,-0.00001964,-0.00002297,0.00002985,-0.00000077,0.00005990,-0.
 00000604,-0.00002948,0.00003260,-0.00010973,0.00025885,-0.00006871,0.0
 0009195,-0.00020273,0.00007169,0.00003114,-0.00001574,0.00003471,0.000
 74708,0.00006791,0.00001334,-0.00026198,0.00016136,0.00004027,0.000033
 42,-0.00006346,-0.00001717,-0.00035683,0.00003245,0.00013092,0.0000393
 0,0.00021275,0.00017348,-0.00010975,0.00003123,0.00011628,0.00061020,-
 0.00055210,-0.00089639,0.00784118,0.00068959,0.00228846,-0.00015303,-0
 .00000866,0.00013481,0.00212898,0.00063445,-0.00018211,-0.00640354,0.0
 0179535,0.00285106,0.00015453,0.00024698,0.00001375,-0.00068203,-0.000
 52770,0.00021928,0.00007420,0.00000379,0.00003566,0.00006779,0.0000721
 7,-0.00013930,0.00023693,0.00009060,0.00006407,-0.00003400,-0.00002022
 ,-0.00006235,-0.00005412,-0.00000326,0.00002809,0.00020821,0.00010376,
 -0.00001033,-0.00001362,0.00000875,-0.00002878,-0.00019098,-0.00009453
 ,-0.00004148,-0.10795737,-0.05441087,0.11213473,-0.00591031,-0.0076155
 7,-0.00097816,0.11015612,0.00009247,-0.00004371,-0.00013181,0.00005451
 ,0.00004265,-0.00002222,-0.00003493,-0.00000188,0.00003069,-0.00001452
 ,-0.00000380,0.00001020,-0.00001619,-0.00003503,0.00001471,0.00005681,
 0.00004781,-0.00006904,-0.00000518,-0.00001983,0.00001999,0.00002322,0
 .00000790,-0.00001047,-0.00026552,-0.00011890,0.00006071,-0.00011894,-
 0.00001106,0.00001529,-0.00004382,0.00000508,-0.00007794,0.00001739,0.
 00018013,-0.00001234,-0.00002061,-0.00010478,-0.00000656,-0.00000113,-
 0.00002196,0.00002475,0.00012197,0.00003608,0.00004999,-0.00000817,0.0
 0001496,0.00000181,-0.00004135,0.00001245,-0.00006052,-0.00004937,0.00
 000352,0.00001113,0.00001089,0.00000527,0.00003192,-0.00002722,-0.0000
 1265,0.00000665,-0.00006137,0.00018371,-0.00004490,0.00006243,-0.00013
 995,0.00004964,0.00002643,-0.00001262,0.00002333,0.00039665,0.00029550
 ,-0.00046205,-0.00054572,0.00006173,0.00048823,0.00004153,-0.00006704,
 -0.00000023,-0.00000212,-0.00034957,0.00002587,0.00017014,0.00023288,-
 0.00005553,0.00003269,0.00039746,0.00031258,-0.00081524,0.00012513,0.0
 0002386,0.00233746,-0.00174142,0.00286557,0.00010293,0.00002237,0.0002
 2748,0.00123751,-0.00056854,-0.00068865,-0.00083800,0.00729277,-0.0037
 2952,0.00006006,0.00002352,-0.00000521,-0.00027572,-0.00023734,0.00036
 244,0.00002872,-0.00001516,-0.00002247,0.00001246,0.00008511,-0.000078
 22,0.00013128,0.00000840,0.00001395,-0.00002430,-0.00001267,-0.0000391
 6,-0.00003490,0.00000473,0.00001923,0.00014031,0.00006087,-0.00000901,
 -0.00002503,-0.00000510,-0.00002162,-0.00012641,-0.00006133,-0.0000302
 1,-0.05508047,-0.05123963,0.06210190,-0.00597716,-0.00367567,0.0063147
 3,0.05929551,0.04934961,-0.00015593,0.00005824,0.00018660,-0.00008956,
 -0.00006227,0.00002037,0.00005594,0.00001458,-0.00005589,0.00004776,0.
 00000317,-0.00002380,0.00002572,0.00004883,-0.00000287,-0.00008300,-0.
 00008450,0.00013671,-0.00002142,0.00005914,-0.00002687,-0.00003388,-0.
 00001477,0.00002063,0.00032775,0.00017819,-0.00005691,-0.00002349,0.00
 009143,-0.00013434,0.00005749,-0.00000992,0.00013234,-0.00002574,-0.00
 020197,-0.00006017,0.00004571,0.00012805,-0.00007270,-0.00000554,0.000
 04457,-0.00004566,-0.00012714,0.00009748,-0.00009638,0.00000747,-0.000
 02421,0.00001707,0.00000415,-0.00007730,0.00003264,0.00010150,-0.00002
 093,0.00000148,-0.00002877,-0.00000896,-0.00006452,0.00003126,0.000031
 52,-0.00002261,0.00012690,-0.00030874,0.00006635,-0.00010558,0.0002367
 2,-0.00008325,-0.00004710,0.00002359,-0.00004058,0.00023365,0.00009774
 ,0.00035360,0.00014379,-0.00069530,-0.00037593,-0.00014105,0.00009222,
 -0.00001056,0.00016363,-0.00008619,-0.00011771,-0.00003615,-0.00003688
 ,0.00015421,-0.00013041,-0.00003086,-0.00013114,-0.00038937,-0.0004375
 4,0.00004580,-0.00021456,0.00298412,-0.00685622,-0.00016326,-0.0001669
 7,-0.00002082,0.00004305,0.00109936,0.00167416,0.00369143,-0.00443874,
 -0.00175876,0.00008601,-0.00006705,0.00003479,0.00012102,0.00029866,-0
 .00040601,-0.00009174,0.00000722,0.00004158,0.00003574,-0.00009726,0.0
 0005685,-0.00018200,-0.00005237,-0.00006139,0.00003864,0.00002218,0.00
 007393,0.00006353,0.00000526,-0.00003221,-0.00024074,-0.00010118,0.000
 01310,0.00003024,-0.00000235,0.00003684,0.00021644,0.00010662,0.000049
 43,0.10966867,0.05846377,-0.15553320,0.00283011,0.01036261,0.01058432,
 -0.11586115,-0.06752896,0.15235768\\-0.00000055,0.00000033,0.00000107,
 -0.00000014,0.00000143,0.00000028,-0.00000067,0.00000054,0.00000106,-0
 .00000006,0.00000026,0.00000151,-0.00000051,0.00000014,0.00000067,0.00
 000055,0.00000121,-0.00000069,-0.00000030,-0.00000016,-0.00000064,0.00
 000032,0.00000050,-0.00000033,0.00000158,-0.00000120,0.00000014,-0.000
 00259,0.00000068,0.00000090,-0.00000048,0.00000001,0.00000205,-0.00000
 184,-0.00000181,-0.00000038,0.00000083,-0.00000335,0.00000550,0.000000
 12,0.00000115,0.00000069,0.00000143,0.00000036,0.00000045,0.00000034,0
 .00000036,-0.00000032,0.00000409,-0.00000088,0.00000583,-0.00000041,0.
 00000186,-0.00000076,-0.00000011,0.00000079,0.00000015,-0.00000065,0.0
 0000032,0.00000127,-0.00000048,-0.00000005,-0.00000012,-0.00000064,0.0
 0000042,0.00000096,-0.00000049,0.00000054,0.00000044,-0.00000130,0.000
 00228,-0.00000942,-0.00000202,0.00000312,0.00000013,0.00000028,-0.0000
 0006,-0.00000041,-0.00000439,0.00000072,-0.00000478,-0.00000140,0.0000
 0063,-0.00000074,0.00000377,-0.00000039,0.00000439,-0.00001094,0.00000
 833,-0.00000484,0.00001394,-0.00000503,0.00001181,-0.00000022,-0.00000
 400,-0.00000308,0.00002869,-0.00001370,0.00003049,-0.00000645,0.000005
 59,-0.00001220,-0.00000766,0.00000303,-0.00000069,-0.00000086,-0.00000
 200,-0.00001106,-0.00000221,0.00000182,-0.00000424,0.00000044,0.000001
 67,-0.00000018,-0.00000034,-0.00000209,-0.00000156,0.00000006,0.000000
 05,0.00000002,0.00000018,0.00000024,-0.00000031,-0.00000007,0.00000085
 ,-0.00000026,-0.00000040,0.00000019,0.00000023,-0.00000016,0.00000060,
 0.00000012,-0.00000689,0.00000068,-0.00001422,-0.00000134,-0.00000649,
 0.00000294,-0.00000006,0.00000049,-0.00000184\\\@
 The archive entry for this job was punched.


 IF I AM NOT FOR MYSELF, WHO WILL BE?
 BUT IF I AM ONLY FOR MYSELF, WHAT AM I?
 THOUGH A SEEKER SINCE MY BIRTH,
 HERE IS ALL I'VE LEARNED ON EARTH,
 THIS IS THE GIST OF WHAT I KNOW:
 GIVE ADVICE AND BUY A FOE.

 PRESSED FOR RULES AND VERITIES,
 ALL I RECOLLECT ARE THESE:
 FEED A COLD TO STARVE A FEVER,
 ARGUE WITH NO TRUE-BELIEVER.
 THINK-TOO-LONG IS NEVER-ACT,
 SCRATCH A MYTH AND FIND A FACT.

 STITCH IN TIME SAVES TWENTY STITCHES,
 GIVE THE RICH TO PLEASE THEM, RICHES.
 GIVE TO LOVE YOU HEARTH AND HALL,
 BUT DO NOT GIVE ADVICE AT ALL.

                                  -- HILLEL
 Job cpu time:       2 days  3 hours 28 minutes 35.3 seconds.
 Elapsed time:       0 days  1 hours 36 minutes 47.3 seconds.
 File lengths (MBytes):  RWF=   5929 Int=      0 D2E=      0 Chk=     77 Scr=      2
 Normal termination of Gaussian 16 at Wed Dec 28 14:43:34 2022.
