 Entering Gaussian System, Link 0=/apps/GAU16/avx2/g16/g16
 Initial command:
 /apps/GAU16/avx2//g16/l1.exe "/localscratch/chegho/Gau-150648.inp" -scrdir="/localscratch/chegho/"
 Entering Link 1 = /apps/GAU16/avx2//g16/l1.exe PID=    150649.
  
 Copyright (c) 1988-2019, Gaussian, Inc.  All Rights Reserved.
  
 This is part of the Gaussian(R) 16 program.  It is based on
 the Gaussian(R) 09 system (copyright 2009, Gaussian, Inc.),
 the Gaussian(R) 03 system (copyright 2003, Gaussian, Inc.),
 the Gaussian(R) 98 system (copyright 1998, Gaussian, Inc.),
 the Gaussian(R) 94 system (copyright 1995, Gaussian, Inc.),
 the Gaussian 92(TM) system (copyright 1992, Gaussian, Inc.),
 the Gaussian 90(TM) system (copyright 1990, Gaussian, Inc.),
 the Gaussian 88(TM) system (copyright 1988, Gaussian, Inc.),
 the Gaussian 86(TM) system (copyright 1986, Carnegie Mellon
 University), and the Gaussian 82(TM) system (copyright 1983,
 Carnegie Mellon University). Gaussian is a federally registered
 trademark of Gaussian, Inc.
  
 This software contains proprietary and confidential information,
 including trade secrets, belonging to Gaussian, Inc.
  
 This software is provided under written license and may be
 used, copied, transmitted, or stored only in accord with that
 written license.
  
 The following legend is applicable only to US Government
 contracts under FAR:
  
                    RESTRICTED RIGHTS LEGEND
  
 Use, reproduction and disclosure by the US Government is
 subject to restrictions as set forth in subparagraphs (a)
 and (c) of the Commercial Computer Software - Restricted
 Rights clause in FAR 52.227-19.
  
 Gaussian, Inc.
 340 Quinnipiac St., Bldg. 40, Wallingford CT 06492
  
  
 ---------------------------------------------------------------
 Warning -- This program may not be used in any manner that
 competes with the business of Gaussian, Inc. or will provide
 assistance to any competitor of Gaussian, Inc.  The licensee
 of this program is prohibited from giving any competitor of
 Gaussian, Inc. access to this program.  By using this program,
 the user acknowledges that Gaussian, Inc. is engaged in the
 business of creating and licensing software in the field of
 computational chemistry and represents and warrants to the
 licensee that it is not a competitor of Gaussian, Inc. and that
 it will not use this program in any manner prohibited above.
 ---------------------------------------------------------------
  

 Cite this work as:
 Gaussian 16, Revision C.01,
 M. J. Frisch, G. W. Trucks, H. B. Schlegel, G. E. Scuseria, 
 M. A. Robb, J. R. Cheeseman, G. Scalmani, V. Barone, 
 G. A. Petersson, H. Nakatsuji, X. Li, M. Caricato, A. V. Marenich, 
 J. Bloino, B. G. Janesko, R. Gomperts, B. Mennucci, H. P. Hratchian, 
 J. V. Ortiz, A. F. Izmaylov, J. L. Sonnenberg, D. Williams-Young, 
 F. Ding, F. Lipparini, F. Egidi, J. Goings, B. Peng, A. Petrone, 
 T. Henderson, D. Ranasinghe, V. G. Zakrzewski, J. Gao, N. Rega, 
 G. Zheng, W. Liang, M. Hada, M. Ehara, K. Toyota, R. Fukuda, 
 J. Hasegawa, M. Ishida, T. Nakajima, Y. Honda, O. Kitao, H. Nakai, 
 T. Vreven, K. Throssell, J. A. Montgomery, Jr., J. E. Peralta, 
 F. Ogliaro, M. J. Bearpark, J. J. Heyd, E. N. Brothers, K. N. Kudin, 
 V. N. Staroverov, T. A. Keith, R. Kobayashi, J. Normand, 
 K. Raghavachari, A. P. Rendell, J. C. Burant, S. S. Iyengar, 
 J. Tomasi, M. Cossi, J. M. Millam, M. Klene, C. Adamo, R. Cammi, 
 J. W. Ochterski, R. L. Martin, K. Morokuma, O. Farkas, 
 J. B. Foresman, and D. J. Fox, Gaussian, Inc., Wallingford CT, 2019.
 
 ******************************************
 Gaussian 16:  ES64L-G16RevC.01  3-Jul-2019
                28-Dec-2022 
 ******************************************
 %nprocshared=48
 Will use up to   48 processors via shared memory.
 %chk=Mo15_S2_i1.chk
 %mem=150GB
 ----------------------------------------------------------
 # opt freq b3lyp/gen nosymm pseudo=read scf=maxcycles=1000
 ----------------------------------------------------------
 1/18=20,19=15,26=3,38=1/1,3;
 2/9=110,12=2,15=1,17=6,18=5,40=1/2;
 3/5=7,11=2,16=1,17=8,25=1,30=1,71=1,74=-5/1,2,3;
 4//1;
 5/5=2,7=1000,38=5/2;
 6/7=2,8=2,9=2,10=2,28=1/1;
 7/30=1/1,2,3,16;
 1/18=20,19=15,26=3/3(2);
 2/9=110,15=1/2;
 99//99;
 2/9=110,15=1/2;
 3/5=7,6=1,11=2,16=1,17=8,25=1,30=1,71=1,74=-5,82=7/1,2,3;
 4/5=5,16=3,69=1/1;
 5/5=2,7=1000,38=5/2;
 7/30=1/1,2,3,16;
 1/18=20,19=15,26=3/3(-5);
 2/9=110,15=1/2;
 6/7=2,8=2,9=2,10=2,19=2,28=1/1;
 99/9=1/99;
 -------------------
 Title Card Required
 -------------------
 Symbolic Z-matrix:
 Charge =  0 Multiplicity = 1
 42                    0.71185   1.38293   12.16964 
 16                    1.59789   3.52107   12.60363 
 16                   -1.53623   1.56265   12.911 
 16                    0.21378   1.10126   9.83858 
 16                    2.70272  -0.05083   11.46304 
 42                   -1.61735   2.33617   10.72453 
 16                   -2.26479   2.14834   8.32286 
 16                   -0.95429   4.46068   10.77256 
 42                    1.28774   3.27873   10.19562 
 16                    0.55377   3.71386   7.82932 
 16                    3.30017   2.27463   9.18972 
 42                    3.39125   2.36414   11.56518 
 42                   -1.7845    4.57608   8.25662 
 16                    4.43905   1.86172   13.87594 
 16                    4.94623   4.14662   11.56271 
 16                   -3.67459   5.77004   9.24429 
 16                   -0.57651   6.76355   8.56645 
 42                   -4.17251   3.42427   8.94257 
 16                   -6.52496   4.26303   9.71564 
 16                   -4.03571   2.43776   11.0537 
 42                    3.03826   0.14429   13.74299 
 16                    3.84783  -1.60522   14.62977 
 16                    1.05506   0.67759   14.59956 
 42                    1.59089   5.96488   7.58845 
 16                    0.87747   5.59571   5.31003 
 16                    1.90565   5.69742   10.12708 
 42                    3.81448   4.62123   9.52779 
 16                    3.65546   4.66401   7.08676 
 16                    5.15424   6.72411   9.59673 
 42                    4.25108   6.87203   7.59209 
 16                    5.73496   7.92502   6.14155 
 16                    2.41329   8.30387   7.88486 
 42                    1.59736   7.85288   5.65789 
 16                    2.90093   10.11244   5.24541 
 16                   -0.31797   8.9816    5.6885 
 42                   -0.99139   6.67834   6.33272 
 16                   -2.13067   4.56197   5.85275 
 16                   -3.18967   7.94368   6.45236 
 42                   -3.82571   5.87568   6.89072 
 16                   -5.59589   5.18012   5.32936 
 16                   -6.34212   6.45229   6.8503 
 42                   -6.69784   4.11312   7.52209 
 16                   -5.23737   2.329     7.17112 
 16                   -8.6593    3.44488   7.07802 
 42                    4.3561    8.69993   4.39794 
 16                    3.05714   7.07915   3.62105 
 16                    5.52729   9.60087   2.8879 
 

 GradGradGradGradGradGradGradGradGradGradGradGradGradGradGradGradGradGrad
 Berny optimization.
 Initialization pass.
                           ----------------------------
                           !    Initial Parameters    !
                           ! (Angstroms and Degrees)  !
 --------------------------                            --------------------------
 ! Name  Definition              Value          Derivative Info.                !
 --------------------------------------------------------------------------------
 ! R1    R(1,2)                  2.3548         estimate D2E/DX2                !
 ! R2    R(1,3)                  2.374          estimate D2E/DX2                !
 ! R3    R(1,4)                  2.4003         estimate D2E/DX2                !
 ! R4    R(1,5)                  2.5531         estimate D2E/DX2                !
 ! R5    R(1,6)                  2.9021         estimate D2E/DX2                !
 ! R6    R(1,9)                  2.7969         estimate D2E/DX2                !
 ! R7    R(1,12)                 2.9167         estimate D2E/DX2                !
 ! R8    R(1,21)                 3.0695         estimate D2E/DX2                !
 ! R9    R(1,23)                 2.5534         estimate D2E/DX2                !
 ! R10   R(2,9)                  2.44           estimate D2E/DX2                !
 ! R11   R(2,12)                 2.3734         estimate D2E/DX2                !
 ! R12   R(3,6)                  2.3207         estimate D2E/DX2                !
 ! R13   R(4,6)                  2.3797         estimate D2E/DX2                !
 ! R14   R(4,9)                  2.454          estimate D2E/DX2                !
 ! R15   R(5,12)                 2.5133         estimate D2E/DX2                !
 ! R16   R(5,21)                 2.3127         estimate D2E/DX2                !
 ! R17   R(6,7)                  2.4945         estimate D2E/DX2                !
 ! R18   R(6,8)                  2.2261         estimate D2E/DX2                !
 ! R19   R(6,9)                  3.0996         estimate D2E/DX2                !
 ! R20   R(6,20)                 2.4428         estimate D2E/DX2                !
 ! R21   R(7,13)                 2.4757         estimate D2E/DX2                !
 ! R22   R(7,18)                 2.3773         estimate D2E/DX2                !
 ! R23   R(8,9)                  2.5993         estimate D2E/DX2                !
 ! R24   R(8,13)                 2.6519         estimate D2E/DX2                !
 ! R25   R(9,10)                 2.5154         estimate D2E/DX2                !
 ! R26   R(9,11)                 2.4637         estimate D2E/DX2                !
 ! R27   R(9,12)                 2.6715         estimate D2E/DX2                !
 ! R28   R(9,26)                 2.4973         estimate D2E/DX2                !
 ! R29   R(9,27)                 2.9381         estimate D2E/DX2                !
 ! R30   R(10,13)                2.5285         estimate D2E/DX2                !
 ! R31   R(10,24)                2.4901         estimate D2E/DX2                !
 ! R32   R(11,12)                2.3789         estimate D2E/DX2                !
 ! R33   R(11,27)                2.426          estimate D2E/DX2                !
 ! R34   R(12,14)                2.5865         estimate D2E/DX2                !
 ! R35   R(12,15)                2.3654         estimate D2E/DX2                !
 ! R36   R(12,27)                3.0699         estimate D2E/DX2                !
 ! R37   R(13,16)                2.4441         estimate D2E/DX2                !
 ! R38   R(13,17)                2.518          estimate D2E/DX2                !
 ! R39   R(13,18)                2.7386         estimate D2E/DX2                !
 ! R40   R(13,36)                2.958          estimate D2E/DX2                !
 ! R41   R(13,37)                2.4287         estimate D2E/DX2                !
 ! R42   R(13,39)                2.7787         estimate D2E/DX2                !
 ! R43   R(14,21)                2.2202         estimate D2E/DX2                !
 ! R44   R(15,27)                2.3763         estimate D2E/DX2                !
 ! R45   R(16,18)                2.4169         estimate D2E/DX2                !
 ! R46   R(16,39)                2.3608         estimate D2E/DX2                !
 ! R47   R(17,24)                2.5084         estimate D2E/DX2                !
 ! R48   R(17,36)                2.2735         estimate D2E/DX2                !
 ! R49   R(18,19)                2.6144         estimate D2E/DX2                !
 ! R50   R(18,20)                2.3343         estimate D2E/DX2                !
 ! R51   R(18,42)                2.9782         estimate D2E/DX2                !
 ! R52   R(18,43)                2.3391         estimate D2E/DX2                !
 ! R53   R(19,42)                2.2055         estimate D2E/DX2                !
 ! R54   R(21,22)                2.1219         estimate D2E/DX2                !
 ! R55   R(21,23)                2.2251         estimate D2E/DX2                !
 ! R56   R(24,25)                2.4159         estimate D2E/DX2                !
 ! R57   R(24,26)                2.572          estimate D2E/DX2                !
 ! R58   R(24,28)                2.4913         estimate D2E/DX2                !
 ! R59   R(24,30)                2.8106         estimate D2E/DX2                !
 ! R60   R(24,32)                2.497          estimate D2E/DX2                !
 ! R61   R(24,33)                2.7003         estimate D2E/DX2                !
 ! R62   R(24,36)                2.9587         estimate D2E/DX2                !
 ! R63   R(25,33)                2.3946         estimate D2E/DX2                !
 ! R64   R(25,36)                2.3897         estimate D2E/DX2                !
 ! R65   R(26,27)                2.2718         estimate D2E/DX2                !
 ! R66   R(27,28)                2.4466         estimate D2E/DX2                !
 ! R67   R(27,29)                2.4944         estimate D2E/DX2                !
 ! R68   R(27,30)                3.0006         estimate D2E/DX2                !
 ! R69   R(28,30)                2.3421         estimate D2E/DX2                !
 ! R70   R(29,30)                2.2037         estimate D2E/DX2                !
 ! R71   R(30,31)                2.327          estimate D2E/DX2                !
 ! R72   R(30,32)                2.3481         estimate D2E/DX2                !
 ! R73   R(31,45)                2.3541         estimate D2E/DX2                !
 ! R74   R(32,33)                2.4142         estimate D2E/DX2                !
 ! R75   R(33,34)                2.641          estimate D2E/DX2                !
 ! R76   R(33,35)                2.2234         estimate D2E/DX2                !
 ! R77   R(33,36)                2.9217         estimate D2E/DX2                !
 ! R78   R(33,46)                2.6227         estimate D2E/DX2                !
 ! R79   R(34,45)                2.1979         estimate D2E/DX2                !
 ! R80   R(35,36)                2.4847         estimate D2E/DX2                !
 ! R81   R(36,37)                2.451          estimate D2E/DX2                !
 ! R82   R(36,38)                2.5393         estimate D2E/DX2                !
 ! R83   R(36,39)                2.9982         estimate D2E/DX2                !
 ! R84   R(37,39)                2.3825         estimate D2E/DX2                !
 ! R85   R(38,39)                2.2076         estimate D2E/DX2                !
 ! R86   R(39,40)                2.4607         estimate D2E/DX2                !
 ! R87   R(39,41)                2.5819         estimate D2E/DX2                !
 ! R88   R(40,41)                2.1186         estimate D2E/DX2                !
 ! R89   R(40,42)                2.676          estimate D2E/DX2                !
 ! R90   R(41,42)                2.4596         estimate D2E/DX2                !
 ! R91   R(42,43)                2.3322         estimate D2E/DX2                !
 ! R92   R(42,44)                2.1192         estimate D2E/DX2                !
 ! R93   R(45,46)                2.2176         estimate D2E/DX2                !
 ! R94   R(45,47)                2.1127         estimate D2E/DX2                !
 ! A1    A(2,1,3)              103.2982         estimate D2E/DX2                !
 ! A2    A(2,1,4)              111.3226         estimate D2E/DX2                !
 ! A3    A(2,1,5)              105.5156         estimate D2E/DX2                !
 ! A4    A(2,1,6)               95.4811         estimate D2E/DX2                !
 ! A5    A(2,1,21)              89.2413         estimate D2E/DX2                !
 ! A6    A(2,1,23)              91.4244         estimate D2E/DX2                !
 ! A7    A(3,1,4)               96.6419         estimate D2E/DX2                !
 ! A8    A(3,1,5)              150.1536         estimate D2E/DX2                !
 ! A9    A(3,1,9)              111.3509         estimate D2E/DX2                !
 ! A10   A(3,1,12)             155.3898         estimate D2E/DX2                !
 ! A11   A(3,1,21)             126.0293         estimate D2E/DX2                !
 ! A12   A(3,1,23)              81.4318         estimate D2E/DX2                !
 ! A13   A(4,1,5)               80.0453         estimate D2E/DX2                !
 ! A14   A(4,1,12)              91.6524         estimate D2E/DX2                !
 ! A15   A(4,1,21)             127.4244         estimate D2E/DX2                !
 ! A16   A(4,1,23)             156.8797         estimate D2E/DX2                !
 ! A17   A(5,1,6)              132.259          estimate D2E/DX2                !
 ! A18   A(5,1,9)               91.4184         estimate D2E/DX2                !
 ! A19   A(5,1,23)              90.1969         estimate D2E/DX2                !
 ! A20   A(6,1,12)             121.5734         estimate D2E/DX2                !
 ! A21   A(6,1,23)             132.2593         estimate D2E/DX2                !
 ! A22   A(9,1,21)             118.6358         estimate D2E/DX2                !
 ! A23   A(9,1,23)             146.2255         estimate D2E/DX2                !
 ! A24   A(12,1,21)             62.9824         estimate D2E/DX2                !
 ! A25   A(12,1,23)             99.5942         estimate D2E/DX2                !
 ! A26   A(12,5,21)             80.7423         estimate D2E/DX2                !
 ! A27   A(1,6,7)              131.5292         estimate D2E/DX2                !
 ! A28   A(1,6,8)               93.6508         estimate D2E/DX2                !
 ! A29   A(1,6,20)             137.8276         estimate D2E/DX2                !
 ! A30   A(3,6,4)               98.6789         estimate D2E/DX2                !
 ! A31   A(3,6,7)              153.0099         estimate D2E/DX2                !
 ! A32   A(3,6,8)              106.7001         estimate D2E/DX2                !
 ! A33   A(3,6,9)              103.2594         estimate D2E/DX2                !
 ! A34   A(3,6,20)              85.4981         estimate D2E/DX2                !
 ! A35   A(4,6,7)               78.5915         estimate D2E/DX2                !
 ! A36   A(4,6,8)              105.9081         estimate D2E/DX2                !
 ! A37   A(4,6,20)             146.464          estimate D2E/DX2                !
 ! A38   A(7,6,8)               99.7846         estimate D2E/DX2                !
 ! A39   A(7,6,9)               95.8468         estimate D2E/DX2                !
 ! A40   A(7,6,20)              82.8723         estimate D2E/DX2                !
 ! A41   A(8,6,20)             104.6128         estimate D2E/DX2                !
 ! A42   A(9,6,20)             159.7546         estimate D2E/DX2                !
 ! A43   A(6,7,13)              84.3512         estimate D2E/DX2                !
 ! A44   A(6,7,18)              85.2324         estimate D2E/DX2                !
 ! A45   A(6,8,13)              85.8602         estimate D2E/DX2                !
 ! A46   A(9,8,13)              94.5447         estimate D2E/DX2                !
 ! A47   A(1,9,8)               88.5078         estimate D2E/DX2                !
 ! A48   A(1,9,10)             136.1473         estimate D2E/DX2                !
 ! A49   A(1,9,11)             100.3758         estimate D2E/DX2                !
 ! A50   A(1,9,26)             136.6196         estimate D2E/DX2                !
 ! A51   A(1,9,27)             130.3318         estimate D2E/DX2                !
 ! A52   A(2,9,4)              106.699          estimate D2E/DX2                !
 ! A53   A(2,9,6)               88.9076         estimate D2E/DX2                !
 ! A54   A(2,9,8)               81.108          estimate D2E/DX2                !
 ! A55   A(2,9,10)             161.4955         estimate D2E/DX2                !
 ! A56   A(2,9,11)             109.852          estimate D2E/DX2                !
 ! A57   A(2,9,26)              84.2287         estimate D2E/DX2                !
 ! A58   A(2,9,27)              93.9924         estimate D2E/DX2                !
 ! A59   A(4,9,8)               93.3413         estimate D2E/DX2                !
 ! A60   A(4,9,10)              83.6229         estimate D2E/DX2                !
 ! A61   A(4,9,11)              86.3558         estimate D2E/DX2                !
 ! A62   A(4,9,12)              96.6269         estimate D2E/DX2                !
 ! A63   A(4,9,26)             164.5063         estimate D2E/DX2                !
 ! A64   A(4,9,27)             138.4788         estimate D2E/DX2                !
 ! A65   A(6,9,10)              86.5398         estimate D2E/DX2                !
 ! A66   A(6,9,11)             135.3402         estimate D2E/DX2                !
 ! A67   A(6,9,12)             123.1196         estimate D2E/DX2                !
 ! A68   A(6,9,26)             122.0797         estimate D2E/DX2                !
 ! A69   A(8,9,10)              83.019          estimate D2E/DX2                !
 ! A70   A(8,9,12)             136.1402         estimate D2E/DX2                !
 ! A71   A(8,9,26)              77.239          estimate D2E/DX2                !
 ! A72   A(8,9,27)             125.764          estimate D2E/DX2                !
 ! A73   A(10,9,11)             85.685          estimate D2E/DX2                !
 ! A74   A(10,9,12)            140.4647         estimate D2E/DX2                !
 ! A75   A(10,9,26)             83.0409         estimate D2E/DX2                !
 ! A76   A(10,9,27)             87.597          estimate D2E/DX2                !
 ! A77   A(11,9,26)            100.452          estimate D2E/DX2                !
 ! A78   A(12,9,26)             98.6745         estimate D2E/DX2                !
 ! A79   A(9,10,13)             99.779          estimate D2E/DX2                !
 ! A80   A(9,10,24)             97.2294         estimate D2E/DX2                !
 ! A81   A(13,10,24)            95.3506         estimate D2E/DX2                !
 ! A82   A(1,12,11)             99.1552         estimate D2E/DX2                !
 ! A83   A(1,12,14)             96.9873         estimate D2E/DX2                !
 ! A84   A(1,12,15)            149.0492         estimate D2E/DX2                !
 ! A85   A(1,12,27)            120.7648         estimate D2E/DX2                !
 ! A86   A(2,12,5)             106.2106         estimate D2E/DX2                !
 ! A87   A(2,12,11)            115.2339         estimate D2E/DX2                !
 ! A88   A(2,12,14)             90.567          estimate D2E/DX2                !
 ! A89   A(2,12,15)             97.461          estimate D2E/DX2                !
 ! A90   A(2,12,27)             92.0719         estimate D2E/DX2                !
 ! A91   A(5,12,9)              95.3026         estimate D2E/DX2                !
 ! A92   A(5,12,11)             84.996          estimate D2E/DX2                !
 ! A93   A(5,12,14)             87.7441         estimate D2E/DX2                !
 ! A94   A(5,12,15)            154.7067         estimate D2E/DX2                !
 ! A95   A(5,12,27)            135.8288         estimate D2E/DX2                !
 ! A96   A(9,12,14)            147.5096         estimate D2E/DX2                !
 ! A97   A(9,12,15)            105.0163         estimate D2E/DX2                !
 ! A98   A(11,12,14)           154.1989         estimate D2E/DX2                !
 ! A99   A(11,12,15)            93.0082         estimate D2E/DX2                !
 ! A100  A(14,12,15)            83.1659         estimate D2E/DX2                !
 ! A101  A(14,12,27)           132.834          estimate D2E/DX2                !
 ! A102  A(7,13,8)              89.5803         estimate D2E/DX2                !
 ! A103  A(7,13,10)             81.3461         estimate D2E/DX2                !
 ! A104  A(7,13,16)            108.5549         estimate D2E/DX2                !
 ! A105  A(7,13,17)            160.338          estimate D2E/DX2                !
 ! A106  A(7,13,36)            140.0277         estimate D2E/DX2                !
 ! A107  A(7,13,37)             89.6067         estimate D2E/DX2                !
 ! A108  A(7,13,39)            109.2255         estimate D2E/DX2                !
 ! A109  A(8,13,10)             81.7196         estimate D2E/DX2                !
 ! A110  A(8,13,16)             83.1061         estimate D2E/DX2                !
 ! A111  A(8,13,17)             76.7544         estimate D2E/DX2                !
 ! A112  A(8,13,18)             90.9767         estimate D2E/DX2                !
 ! A113  A(8,13,36)            124.336          estimate D2E/DX2                !
 ! A114  A(8,13,39)            135.7814         estimate D2E/DX2                !
 ! A115  A(10,13,16)           161.8078         estimate D2E/DX2                !
 ! A116  A(10,13,17)            82.7258         estimate D2E/DX2                !
 ! A117  A(10,13,18)           134.8526         estimate D2E/DX2                !
 ! A118  A(10,13,36)            83.3668         estimate D2E/DX2                !
 ! A119  A(10,13,37)            87.8547         estimate D2E/DX2                !
 ! A120  A(10,13,39)           139.0892         estimate D2E/DX2                !
 ! A121  A(16,13,17)            84.0817         estimate D2E/DX2                !
 ! A122  A(16,13,36)            97.0649         estimate D2E/DX2                !
 ! A123  A(16,13,37)           107.0129         estimate D2E/DX2                !
 ! A124  A(17,13,18)           138.8415         estimate D2E/DX2                !
 ! A125  A(17,13,37)           101.2574         estimate D2E/DX2                !
 ! A126  A(17,13,39)            90.3777         estimate D2E/DX2                !
 ! A127  A(18,13,36)           134.0767         estimate D2E/DX2                !
 ! A128  A(18,13,37)            96.9606         estimate D2E/DX2                !
 ! A129  A(18,13,39)            71.2935         estimate D2E/DX2                !
 ! A130  A(12,14,21)            80.8611         estimate D2E/DX2                !
 ! A131  A(18,16,39)            84.5942         estimate D2E/DX2                !
 ! A132  A(13,17,24)            95.1608         estimate D2E/DX2                !
 ! A133  A(7,18,16)            112.8386         estimate D2E/DX2                !
 ! A134  A(7,18,20)             87.8168         estimate D2E/DX2                !
 ! A135  A(7,18,42)            132.8644         estimate D2E/DX2                !
 ! A136  A(7,18,43)             85.2156         estimate D2E/DX2                !
 ! A137  A(13,18,19)           136.3649         estimate D2E/DX2                !
 ! A138  A(13,18,20)           110.6823         estimate D2E/DX2                !
 ! A139  A(13,18,42)           121.5099         estimate D2E/DX2                !
 ! A140  A(13,18,43)           113.8412         estimate D2E/DX2                !
 ! A141  A(16,18,19)            80.6238         estimate D2E/DX2                !
 ! A142  A(16,18,20)           106.5713         estimate D2E/DX2                !
 ! A143  A(16,18,42)            90.5579         estimate D2E/DX2                !
 ! A144  A(16,18,43)           129.9984         estimate D2E/DX2                !
 ! A145  A(19,18,20)            85.4626         estimate D2E/DX2                !
 ! A146  A(19,18,43)            87.9671         estimate D2E/DX2                !
 ! A147  A(20,18,42)           125.3671         estimate D2E/DX2                !
 ! A148  A(20,18,43)           120.9111         estimate D2E/DX2                !
 ! A149  A(6,20,18)             87.3474         estimate D2E/DX2                !
 ! A150  A(1,21,14)            101.3458         estimate D2E/DX2                !
 ! A151  A(1,21,22)            146.7286         estimate D2E/DX2                !
 ! A152  A(5,21,14)            102.4641         estimate D2E/DX2                !
 ! A153  A(5,21,22)            113.4394         estimate D2E/DX2                !
 ! A154  A(5,21,23)            105.6885         estimate D2E/DX2                !
 ! A155  A(14,21,22)           111.8413         estimate D2E/DX2                !
 ! A156  A(14,21,23)           110.7245         estimate D2E/DX2                !
 ! A157  A(22,21,23)           112.1338         estimate D2E/DX2                !
 ! A158  A(10,24,17)            83.698          estimate D2E/DX2                !
 ! A159  A(10,24,25)            80.2178         estimate D2E/DX2                !
 ! A160  A(10,24,26)            82.0383         estimate D2E/DX2                !
 ! A161  A(10,24,28)            83.8348         estimate D2E/DX2                !
 ! A162  A(10,24,30)           133.302          estimate D2E/DX2                !
 ! A163  A(10,24,33)           134.6037         estimate D2E/DX2                !
 ! A164  A(10,24,36)            84.0035         estimate D2E/DX2                !
 ! A165  A(17,24,25)            99.2765         estimate D2E/DX2                !
 ! A166  A(17,24,26)            75.7603         estimate D2E/DX2                !
 ! A167  A(17,24,28)           163.9134         estimate D2E/DX2                !
 ! A168  A(17,24,30)           135.6064         estimate D2E/DX2                !
 ! A169  A(17,24,32)            86.563          estimate D2E/DX2                !
 ! A170  A(17,24,33)            93.3365         estimate D2E/DX2                !
 ! A171  A(25,24,26)           162.0099         estimate D2E/DX2                !
 ! A172  A(25,24,28)            88.5683         estimate D2E/DX2                !
 ! A173  A(25,24,30)           109.2715         estimate D2E/DX2                !
 ! A174  A(25,24,32)           110.6313         estimate D2E/DX2                !
 ! A175  A(26,24,28)            92.467          estimate D2E/DX2                !
 ! A176  A(26,24,30)            85.2077         estimate D2E/DX2                !
 ! A177  A(26,24,32)            86.5566         estimate D2E/DX2                !
 ! A178  A(26,24,33)           141.0847         estimate D2E/DX2                !
 ! A179  A(26,24,36)           123.4213         estimate D2E/DX2                !
 ! A180  A(28,24,32)           103.8921         estimate D2E/DX2                !
 ! A181  A(28,24,33)           102.6585         estimate D2E/DX2                !
 ! A182  A(28,24,36)           139.7941         estimate D2E/DX2                !
 ! A183  A(30,24,33)            76.8792         estimate D2E/DX2                !
 ! A184  A(30,24,36)           138.4848         estimate D2E/DX2                !
 ! A185  A(32,24,36)            96.4278         estimate D2E/DX2                !
 ! A186  A(9,26,24)             95.5968         estimate D2E/DX2                !
 ! A187  A(24,26,27)            83.7837         estimate D2E/DX2                !
 ! A188  A(9,27,15)             97.1042         estimate D2E/DX2                !
 ! A189  A(9,27,28)            100.3041         estimate D2E/DX2                !
 ! A190  A(9,27,29)            147.2283         estimate D2E/DX2                !
 ! A191  A(9,27,30)            127.9157         estimate D2E/DX2                !
 ! A192  A(11,27,15)            91.5538         estimate D2E/DX2                !
 ! A193  A(11,27,26)           108.4726         estimate D2E/DX2                !
 ! A194  A(11,27,28)            82.1888         estimate D2E/DX2                !
 ! A195  A(11,27,29)           158.9384         estimate D2E/DX2                !
 ! A196  A(11,27,30)           131.7989         estimate D2E/DX2                !
 ! A197  A(12,27,26)            93.2896         estimate D2E/DX2                !
 ! A198  A(12,27,28)           131.7626         estimate D2E/DX2                !
 ! A199  A(12,27,29)           132.4963         estimate D2E/DX2                !
 ! A200  A(15,27,26)           105.5981         estimate D2E/DX2                !
 ! A201  A(15,27,28)           152.7265         estimate D2E/DX2                !
 ! A202  A(15,27,29)            83.6217         estimate D2E/DX2                !
 ! A203  A(15,27,30)           129.267          estimate D2E/DX2                !
 ! A204  A(26,27,28)           101.5546         estimate D2E/DX2                !
 ! A205  A(26,27,29)            92.5585         estimate D2E/DX2                !
 ! A206  A(26,27,30)            86.3931         estimate D2E/DX2                !
 ! A207  A(28,27,29)            92.7365         estimate D2E/DX2                !
 ! A208  A(24,28,27)            82.0721         estimate D2E/DX2                !
 ! A209  A(24,30,27)            67.7292         estimate D2E/DX2                !
 ! A210  A(24,30,29)           111.5568         estimate D2E/DX2                !
 ! A211  A(24,30,31)           138.4872         estimate D2E/DX2                !
 ! A212  A(27,30,31)           146.5492         estimate D2E/DX2                !
 ! A213  A(27,30,32)           105.254          estimate D2E/DX2                !
 ! A214  A(28,30,29)           103.7224         estimate D2E/DX2                !
 ! A215  A(28,30,31)           117.0192         estimate D2E/DX2                !
 ! A216  A(28,30,32)           113.7499         estimate D2E/DX2                !
 ! A217  A(29,30,31)           109.6383         estimate D2E/DX2                !
 ! A218  A(29,30,32)           104.3759         estimate D2E/DX2                !
 ! A219  A(31,30,32)           107.511          estimate D2E/DX2                !
 ! A220  A(30,31,45)           103.718          estimate D2E/DX2                !
 ! A221  A(30,32,33)            92.0397         estimate D2E/DX2                !
 ! A222  A(24,33,34)           135.3191         estimate D2E/DX2                !
 ! A223  A(24,33,35)           110.0624         estimate D2E/DX2                !
 ! A224  A(24,33,46)           110.506          estimate D2E/DX2                !
 ! A225  A(25,33,32)           114.311          estimate D2E/DX2                !
 ! A226  A(25,33,34)           158.7739         estimate D2E/DX2                !
 ! A227  A(25,33,35)           102.7998         estimate D2E/DX2                !
 ! A228  A(25,33,46)            77.0808         estimate D2E/DX2                !
 ! A229  A(32,33,34)            79.4805         estimate D2E/DX2                !
 ! A230  A(32,33,35)           100.5803         estimate D2E/DX2                !
 ! A231  A(32,33,36)            99.2936         estimate D2E/DX2                !
 ! A232  A(32,33,46)           125.6891         estimate D2E/DX2                !
 ! A233  A(34,33,35)            89.5999         estimate D2E/DX2                !
 ! A234  A(34,33,36)           144.8194         estimate D2E/DX2                !
 ! A235  A(34,33,46)            81.7426         estimate D2E/DX2                !
 ! A236  A(35,33,46)           129.7876         estimate D2E/DX2                !
 ! A237  A(36,33,46)           123.6381         estimate D2E/DX2                !
 ! A238  A(33,34,45)            80.6289         estimate D2E/DX2                !
 ! A239  A(13,36,24)            77.6779         estimate D2E/DX2                !
 ! A240  A(13,36,25)            99.5584         estimate D2E/DX2                !
 ! A241  A(13,36,33)           132.3367         estimate D2E/DX2                !
 ! A242  A(13,36,35)           154.1733         estimate D2E/DX2                !
 ! A243  A(13,36,38)            95.2433         estimate D2E/DX2                !
 ! A244  A(17,36,25)           107.1415         estimate D2E/DX2                !
 ! A245  A(17,36,33)            92.8758         estimate D2E/DX2                !
 ! A246  A(17,36,35)            99.8192         estimate D2E/DX2                !
 ! A247  A(17,36,37)           108.0341         estimate D2E/DX2                !
 ! A248  A(17,36,38)            95.3367         estimate D2E/DX2                !
 ! A249  A(17,36,39)            89.982          estimate D2E/DX2                !
 ! A250  A(24,36,35)            95.5679         estimate D2E/DX2                !
 ! A251  A(24,36,37)           106.2949         estimate D2E/DX2                !
 ! A252  A(24,36,38)           148.8408         estimate D2E/DX2                !
 ! A253  A(24,36,39)           132.963          estimate D2E/DX2                !
 ! A254  A(25,36,35)            95.569          estimate D2E/DX2                !
 ! A255  A(25,36,37)            83.5995         estimate D2E/DX2                !
 ! A256  A(25,36,38)           157.3623         estimate D2E/DX2                !
 ! A257  A(25,36,39)           134.241          estimate D2E/DX2                !
 ! A258  A(33,36,37)           135.5399         estimate D2E/DX2                !
 ! A259  A(33,36,38)           125.2827         estimate D2E/DX2                !
 ! A260  A(35,36,37)           151.1213         estimate D2E/DX2                !
 ! A261  A(35,36,38)            77.58           estimate D2E/DX2                !
 ! A262  A(35,36,39)           123.5488         estimate D2E/DX2                !
 ! A263  A(37,36,38)            92.1261         estimate D2E/DX2                !
 ! A264  A(13,39,38)           108.9106         estimate D2E/DX2                !
 ! A265  A(13,39,40)           135.084          estimate D2E/DX2                !
 ! A266  A(13,39,41)           145.9032         estimate D2E/DX2                !
 ! A267  A(16,39,36)            97.875          estimate D2E/DX2                !
 ! A268  A(16,39,37)           111.3533         estimate D2E/DX2                !
 ! A269  A(16,39,38)           102.7936         estimate D2E/DX2                !
 ! A270  A(16,39,40)           131.7571         estimate D2E/DX2                !
 ! A271  A(16,39,41)            95.048          estimate D2E/DX2                !
 ! A272  A(36,39,40)           129.6161         estimate D2E/DX2                !
 ! A273  A(36,39,41)           149.1659         estimate D2E/DX2                !
 ! A274  A(37,39,38)           103.0056         estimate D2E/DX2                !
 ! A275  A(37,39,40)            94.5599         estimate D2E/DX2                !
 ! A276  A(37,39,41)           144.0676         estimate D2E/DX2                !
 ! A277  A(38,39,40)           110.2468         estimate D2E/DX2                !
 ! A278  A(38,39,41)            93.9274         estimate D2E/DX2                !
 ! A279  A(39,40,42)            83.6279         estimate D2E/DX2                !
 ! A280  A(39,41,42)            85.6578         estimate D2E/DX2                !
 ! A281  A(18,42,40)            97.6938         estimate D2E/DX2                !
 ! A282  A(18,42,41)           103.1567         estimate D2E/DX2                !
 ! A283  A(18,42,44)           144.2753         estimate D2E/DX2                !
 ! A284  A(19,42,40)           139.0787         estimate D2E/DX2                !
 ! A285  A(19,42,41)           101.2843         estimate D2E/DX2                !
 ! A286  A(19,42,43)            98.7767         estimate D2E/DX2                !
 ! A287  A(19,42,44)           107.6016         estimate D2E/DX2                !
 ! A288  A(40,42,43)            85.6323         estimate D2E/DX2                !
 ! A289  A(40,42,44)           109.5828         estimate D2E/DX2                !
 ! A290  A(41,42,43)           126.5746         estimate D2E/DX2                !
 ! A291  A(41,42,44)           112.1179         estimate D2E/DX2                !
 ! A292  A(43,42,44)           107.8693         estimate D2E/DX2                !
 ! A293  A(31,45,34)           108.2852         estimate D2E/DX2                !
 ! A294  A(31,45,46)           111.222          estimate D2E/DX2                !
 ! A295  A(31,45,47)           110.1849         estimate D2E/DX2                !
 ! A296  A(34,45,46)           102.5314         estimate D2E/DX2                !
 ! A297  A(34,45,47)           111.6259         estimate D2E/DX2                !
 ! A298  A(46,45,47)           112.7048         estimate D2E/DX2                !
 ! A299  A(33,46,45)            80.6963         estimate D2E/DX2                !
 ! A300  L(6,1,21,12,-1)       184.5558         estimate D2E/DX2                !
 ! A301  L(6,9,27,2,-1)        182.9001         estimate D2E/DX2                !
 ! A302  L(8,9,11,1,-1)        188.8835         estimate D2E/DX2                !
 ! A303  L(8,13,37,7,-1)       179.187          estimate D2E/DX2                !
 ! A304  L(7,18,19,16,-1)      193.4624         estimate D2E/DX2                !
 ! A305  L(10,24,32,17,-1)     170.261          estimate D2E/DX2                !
 ! A306  L(12,27,30,26,-1)     179.6827         estimate D2E/DX2                !
 ! A307  L(33,36,39,17,-1)     182.8578         estimate D2E/DX2                !
 ! A308  L(6,1,21,12,-2)       182.5691         estimate D2E/DX2                !
 ! A309  L(6,9,27,2,-2)        189.9454         estimate D2E/DX2                !
 ! A310  L(8,9,11,1,-2)        172.9091         estimate D2E/DX2                !
 ! A311  L(8,13,37,7,-2)       190.4222         estimate D2E/DX2                !
 ! A312  L(7,18,19,16,-2)      182.9161         estimate D2E/DX2                !
 ! A313  L(10,24,32,17,-2)     170.6689         estimate D2E/DX2                !
 ! A314  L(12,27,30,26,-2)     178.6014         estimate D2E/DX2                !
 ! A315  L(33,36,39,17,-2)     171.6694         estimate D2E/DX2                !
 ! D1    D(2,1,6,7)            112.082          estimate D2E/DX2                !
 ! D2    D(2,1,6,8)              5.5841         estimate D2E/DX2                !
 ! D3    D(2,1,6,20)          -110.9659         estimate D2E/DX2                !
 ! D4    D(5,1,6,7)             -4.6797         estimate D2E/DX2                !
 ! D5    D(5,1,6,8)           -111.1776         estimate D2E/DX2                !
 ! D6    D(5,1,6,20)           132.2724         estimate D2E/DX2                !
 ! D7    D(12,1,6,7)            63.6679         estimate D2E/DX2                !
 ! D8    D(12,1,6,8)           -42.83           estimate D2E/DX2                !
 ! D9    D(12,1,6,20)         -159.38           estimate D2E/DX2                !
 ! D10   D(23,1,6,7)          -150.9722         estimate D2E/DX2                !
 ! D11   D(23,1,6,8)           102.5299         estimate D2E/DX2                !
 ! D12   D(23,1,6,20)          -14.0201         estimate D2E/DX2                !
 ! D13   D(3,1,9,8)             11.8968         estimate D2E/DX2                !
 ! D14   D(3,1,9,10)           -66.4138         estimate D2E/DX2                !
 ! D15   D(3,1,9,11)          -161.0123         estimate D2E/DX2                !
 ! D16   D(3,1,9,26)            81.4541         estimate D2E/DX2                !
 ! D17   D(3,1,9,27)           150.0408         estimate D2E/DX2                !
 ! D18   D(5,1,9,8)            172.1581         estimate D2E/DX2                !
 ! D19   D(5,1,9,10)            93.8474         estimate D2E/DX2                !
 ! D20   D(5,1,9,11)            -0.7511         estimate D2E/DX2                !
 ! D21   D(5,1,9,26)          -118.2847         estimate D2E/DX2                !
 ! D22   D(5,1,9,27)           -49.6979         estimate D2E/DX2                !
 ! D23   D(21,1,9,8)          -147.011          estimate D2E/DX2                !
 ! D24   D(21,1,9,10)          134.6784         estimate D2E/DX2                !
 ! D25   D(21,1,9,11)           40.0799         estimate D2E/DX2                !
 ! D26   D(21,1,9,26)          -77.4537         estimate D2E/DX2                !
 ! D27   D(21,1,9,27)           -8.867          estimate D2E/DX2                !
 ! D28   D(23,1,9,8)           -95.3656         estimate D2E/DX2                !
 ! D29   D(23,1,9,10)         -173.6762         estimate D2E/DX2                !
 ! D30   D(23,1,9,11)           91.7253         estimate D2E/DX2                !
 ! D31   D(23,1,9,26)          -25.8083         estimate D2E/DX2                !
 ! D32   D(23,1,9,27)           42.7784         estimate D2E/DX2                !
 ! D33   D(3,1,12,11)         -108.9876         estimate D2E/DX2                !
 ! D34   D(3,1,12,14)           91.2108         estimate D2E/DX2                !
 ! D35   D(3,1,12,15)            2.8573         estimate D2E/DX2                !
 ! D36   D(3,1,12,27)          -59.2594         estimate D2E/DX2                !
 ! D37   D(4,1,12,11)            0.9403         estimate D2E/DX2                !
 ! D38   D(4,1,12,14)         -158.8613         estimate D2E/DX2                !
 ! D39   D(4,1,12,15)          112.7851         estimate D2E/DX2                !
 ! D40   D(4,1,12,27)           50.6684         estimate D2E/DX2                !
 ! D41   D(6,1,12,11)          -44.5983         estimate D2E/DX2                !
 ! D42   D(6,1,12,14)          155.6001         estimate D2E/DX2                !
 ! D43   D(6,1,12,15)           67.2466         estimate D2E/DX2                !
 ! D44   D(6,1,12,27)            5.1299         estimate D2E/DX2                !
 ! D45   D(21,1,12,11)         132.8326         estimate D2E/DX2                !
 ! D46   D(21,1,12,14)         -26.9689         estimate D2E/DX2                !
 ! D47   D(21,1,12,15)        -115.3225         estimate D2E/DX2                !
 ! D48   D(21,1,12,27)        -177.4392         estimate D2E/DX2                !
 ! D49   D(23,1,12,11)         160.6575         estimate D2E/DX2                !
 ! D50   D(23,1,12,14)           0.8559         estimate D2E/DX2                !
 ! D51   D(23,1,12,15)         -87.4976         estimate D2E/DX2                !
 ! D52   D(23,1,12,27)        -149.6143         estimate D2E/DX2                !
 ! D53   D(2,1,21,14)          -14.7207         estimate D2E/DX2                !
 ! D54   D(2,1,21,22)          169.3622         estimate D2E/DX2                !
 ! D55   D(3,1,21,14)         -120.6719         estimate D2E/DX2                !
 ! D56   D(3,1,21,22)           63.411          estimate D2E/DX2                !
 ! D57   D(4,1,21,14)          101.8802         estimate D2E/DX2                !
 ! D58   D(4,1,21,22)          -74.0369         estimate D2E/DX2                !
 ! D59   D(9,1,21,14)           34.8436         estimate D2E/DX2                !
 ! D60   D(9,1,21,22)         -141.0736         estimate D2E/DX2                !
 ! D61   D(12,1,21,14)          32.3335         estimate D2E/DX2                !
 ! D62   D(12,1,21,22)        -143.5837         estimate D2E/DX2                !
 ! D63   D(1,2,9,12)           -82.377          estimate D2E/DX2                !
 ! D64   D(1,4,6,9)             72.2478         estimate D2E/DX2                !
 ! D65   D(21,5,12,2)          -70.4            estimate D2E/DX2                !
 ! D66   D(21,5,12,9)         -128.0417         estimate D2E/DX2                !
 ! D67   D(21,5,12,11)         174.7521         estimate D2E/DX2                !
 ! D68   D(21,5,12,14)          19.5347         estimate D2E/DX2                !
 ! D69   D(21,5,12,15)          88.3062         estimate D2E/DX2                !
 ! D70   D(21,5,12,27)         178.9109         estimate D2E/DX2                !
 ! D71   D(12,5,21,14)         -23.4926         estimate D2E/DX2                !
 ! D72   D(12,5,21,22)        -144.231          estimate D2E/DX2                !
 ! D73   D(12,5,21,23)          92.5171         estimate D2E/DX2                !
 ! D74   D(1,6,7,13)          -109.1988         estimate D2E/DX2                !
 ! D75   D(1,6,7,18)          -178.1931         estimate D2E/DX2                !
 ! D76   D(3,6,7,13)           163.4842         estimate D2E/DX2                !
 ! D77   D(3,6,7,18)            94.49           estimate D2E/DX2                !
 ! D78   D(4,6,7,13)          -109.784          estimate D2E/DX2                !
 ! D79   D(4,6,7,18)          -178.7783         estimate D2E/DX2                !
 ! D80   D(8,6,7,13)            -5.3688         estimate D2E/DX2                !
 ! D81   D(8,6,7,18)           -74.363          estimate D2E/DX2                !
 ! D82   D(9,6,7,13)           -61.3555         estimate D2E/DX2                !
 ! D83   D(9,6,7,18)          -130.3497         estimate D2E/DX2                !
 ! D84   D(20,6,7,13)           98.3076         estimate D2E/DX2                !
 ! D85   D(20,6,7,18)           29.3134         estimate D2E/DX2                !
 ! D86   D(1,6,8,13)           138.2479         estimate D2E/DX2                !
 ! D87   D(3,6,8,13)          -169.7444         estimate D2E/DX2                !
 ! D88   D(4,6,8,13)            85.8182         estimate D2E/DX2                !
 ! D89   D(7,6,8,13)             4.9998         estimate D2E/DX2                !
 ! D90   D(20,6,8,13)          -80.115          estimate D2E/DX2                !
 ! D91   D(3,6,9,2)            -22.8503         estimate D2E/DX2                !
 ! D92   D(3,6,9,10)           175.0941         estimate D2E/DX2                !
 ! D93   D(3,6,9,11)            94.7904         estimate D2E/DX2                !
 ! D94   D(3,6,9,12)            23.0786         estimate D2E/DX2                !
 ! D95   D(3,6,9,26)          -105.343          estimate D2E/DX2                !
 ! D96   D(7,6,9,2)            176.3443         estimate D2E/DX2                !
 ! D97   D(7,6,9,10)            14.2887         estimate D2E/DX2                !
 ! D98   D(7,6,9,11)           -66.015          estimate D2E/DX2                !
 ! D99   D(7,6,9,12)          -137.7269         estimate D2E/DX2                !
 ! D100  D(7,6,9,26)            93.8516         estimate D2E/DX2                !
 ! D101  D(20,6,9,2)            91.0944         estimate D2E/DX2                !
 ! D102  D(20,6,9,10)          -70.9612         estimate D2E/DX2                !
 ! D103  D(20,6,9,11)         -151.2649         estimate D2E/DX2                !
 ! D104  D(20,6,9,12)          137.0232         estimate D2E/DX2                !
 ! D105  D(20,6,9,26)            8.6017         estimate D2E/DX2                !
 ! D106  D(1,6,20,18)         -178.8321         estimate D2E/DX2                !
 ! D107  D(3,6,20,18)          174.5755         estimate D2E/DX2                !
 ! D108  D(4,6,20,18)          -86.4969         estimate D2E/DX2                !
 ! D109  D(7,6,20,18)          -29.8292         estimate D2E/DX2                !
 ! D110  D(8,6,20,18)           68.4729         estimate D2E/DX2                !
 ! D111  D(9,6,20,18)           57.7426         estimate D2E/DX2                !
 ! D112  D(6,7,13,8)             4.4393         estimate D2E/DX2                !
 ! D113  D(6,7,13,10)           86.1272         estimate D2E/DX2                !
 ! D114  D(6,7,13,16)          -78.1446         estimate D2E/DX2                !
 ! D115  D(6,7,13,17)           49.893          estimate D2E/DX2                !
 ! D116  D(6,7,13,36)          154.8155         estimate D2E/DX2                !
 ! D117  D(6,7,13,37)          174.0171         estimate D2E/DX2                !
 ! D118  D(6,7,13,39)         -134.7156         estimate D2E/DX2                !
 ! D119  D(6,7,18,16)           76.4949         estimate D2E/DX2                !
 ! D120  D(6,7,18,20)          -30.581          estimate D2E/DX2                !
 ! D121  D(6,7,18,42)         -169.5959         estimate D2E/DX2                !
 ! D122  D(6,7,18,43)         -151.8508         estimate D2E/DX2                !
 ! D123  D(13,8,9,1)          -129.7125         estimate D2E/DX2                !
 ! D124  D(13,8,9,2)           177.626          estimate D2E/DX2                !
 ! D125  D(13,8,9,4)           -75.9824         estimate D2E/DX2                !
 ! D126  D(13,8,9,10)            7.1692         estimate D2E/DX2                !
 ! D127  D(13,8,9,12)         -179.1377         estimate D2E/DX2                !
 ! D128  D(13,8,9,26)           91.5783         estimate D2E/DX2                !
 ! D129  D(13,8,9,27)           89.1067         estimate D2E/DX2                !
 ! D130  D(6,8,13,7)            -4.9645         estimate D2E/DX2                !
 ! D131  D(6,8,13,10)          -86.2803         estimate D2E/DX2                !
 ! D132  D(6,8,13,16)          103.7846         estimate D2E/DX2                !
 ! D133  D(6,8,13,17)         -170.7028         estimate D2E/DX2                !
 ! D134  D(6,8,13,18)           48.9821         estimate D2E/DX2                !
 ! D135  D(6,8,13,36)         -162.3481         estimate D2E/DX2                !
 ! D136  D(6,8,13,39)          112.7231         estimate D2E/DX2                !
 ! D137  D(9,8,13,7)            74.1621         estimate D2E/DX2                !
 ! D138  D(9,8,13,10)           -7.1537         estimate D2E/DX2                !
 ! D139  D(9,8,13,16)         -177.0888         estimate D2E/DX2                !
 ! D140  D(9,8,13,17)          -91.5762         estimate D2E/DX2                !
 ! D141  D(9,8,13,18)          128.1087         estimate D2E/DX2                !
 ! D142  D(9,8,13,36)          -83.2215         estimate D2E/DX2                !
 ! D143  D(9,8,13,39)         -168.1503         estimate D2E/DX2                !
 ! D144  D(1,9,10,13)           72.8757         estimate D2E/DX2                !
 ! D145  D(1,9,10,24)          169.609          estimate D2E/DX2                !
 ! D146  D(2,9,10,13)          -38.6793         estimate D2E/DX2                !
 ! D147  D(2,9,10,24)           58.054          estimate D2E/DX2                !
 ! D148  D(4,9,10,13)           86.5648         estimate D2E/DX2                !
 ! D149  D(4,9,10,24)         -176.702          estimate D2E/DX2                !
 ! D150  D(6,9,10,13)           37.3846         estimate D2E/DX2                !
 ! D151  D(6,9,10,24)          134.1179         estimate D2E/DX2                !
 ! D152  D(8,9,10,13)           -7.6084         estimate D2E/DX2                !
 ! D153  D(8,9,10,24)           89.1249         estimate D2E/DX2                !
 ! D154  D(11,9,10,13)         173.3715         estimate D2E/DX2                !
 ! D155  D(11,9,10,24)         -89.8953         estimate D2E/DX2                !
 ! D156  D(12,9,10,13)         179.2594         estimate D2E/DX2                !
 ! D157  D(12,9,10,24)         -84.0074         estimate D2E/DX2                !
 ! D158  D(26,9,10,13)         -85.5306         estimate D2E/DX2                !
 ! D159  D(26,9,10,24)          11.2027         estimate D2E/DX2                !
 ! D160  D(27,9,10,13)        -134.0832         estimate D2E/DX2                !
 ! D161  D(27,9,10,24)         -37.35           estimate D2E/DX2                !
 ! D162  D(4,9,12,5)             0.0996         estimate D2E/DX2                !
 ! D163  D(4,9,12,14)          -94.0378         estimate D2E/DX2                !
 ! D164  D(4,9,12,15)          164.9002         estimate D2E/DX2                !
 ! D165  D(6,9,12,5)            44.7249         estimate D2E/DX2                !
 ! D166  D(6,9,12,14)          -49.4125         estimate D2E/DX2                !
 ! D167  D(6,9,12,15)         -150.4745         estimate D2E/DX2                !
 ! D168  D(8,9,12,5)           101.9631         estimate D2E/DX2                !
 ! D169  D(8,9,12,14)            7.8258         estimate D2E/DX2                !
 ! D170  D(8,9,12,15)          -93.2363         estimate D2E/DX2                !
 ! D171  D(10,9,12,5)          -87.9002         estimate D2E/DX2                !
 ! D172  D(10,9,12,14)         177.9624         estimate D2E/DX2                !
 ! D173  D(10,9,12,15)          76.9004         estimate D2E/DX2                !
 ! D174  D(26,9,12,5)         -177.4592         estimate D2E/DX2                !
 ! D175  D(26,9,12,14)          88.4034         estimate D2E/DX2                !
 ! D176  D(26,9,12,15)         -12.6586         estimate D2E/DX2                !
 ! D177  D(1,9,26,24)         -169.0156         estimate D2E/DX2                !
 ! D178  D(2,9,26,24)         -177.3484         estimate D2E/DX2                !
 ! D179  D(4,9,26,24)          -41.5792         estimate D2E/DX2                !
 ! D180  D(6,9,26,24)          -92.28           estimate D2E/DX2                !
 ! D181  D(8,9,26,24)          -95.1883         estimate D2E/DX2                !
 ! D182  D(10,9,26,24)         -10.8065         estimate D2E/DX2                !
 ! D183  D(11,9,26,24)          73.4777         estimate D2E/DX2                !
 ! D184  D(12,9,26,24)         129.3077         estimate D2E/DX2                !
 ! D185  D(1,9,27,15)          -17.4238         estimate D2E/DX2                !
 ! D186  D(1,9,27,28)          141.491          estimate D2E/DX2                !
 ! D187  D(1,9,27,29)         -106.6662         estimate D2E/DX2                !
 ! D188  D(1,9,27,30)         -172.3238         estimate D2E/DX2                !
 ! D189  D(2,9,27,15)           25.3736         estimate D2E/DX2                !
 ! D190  D(2,9,27,28)         -175.7115         estimate D2E/DX2                !
 ! D191  D(2,9,27,29)          -63.8687         estimate D2E/DX2                !
 ! D192  D(2,9,27,30)         -129.5263         estimate D2E/DX2                !
 ! D193  D(4,9,27,15)          -95.5136         estimate D2E/DX2                !
 ! D194  D(4,9,27,28)           63.4012         estimate D2E/DX2                !
 ! D195  D(4,9,27,29)          175.244          estimate D2E/DX2                !
 ! D196  D(4,9,27,30)          109.5864         estimate D2E/DX2                !
 ! D197  D(8,9,27,15)          107.286          estimate D2E/DX2                !
 ! D198  D(8,9,27,28)          -93.7992         estimate D2E/DX2                !
 ! D199  D(8,9,27,29)           18.0436         estimate D2E/DX2                !
 ! D200  D(8,9,27,30)          -47.614          estimate D2E/DX2                !
 ! D201  D(10,9,27,15)        -173.0921         estimate D2E/DX2                !
 ! D202  D(10,9,27,28)         -14.1773         estimate D2E/DX2                !
 ! D203  D(10,9,27,29)          97.6655         estimate D2E/DX2                !
 ! D204  D(10,9,27,30)          32.0079         estimate D2E/DX2                !
 ! D205  D(9,10,13,7)          -83.3606         estimate D2E/DX2                !
 ! D206  D(9,10,13,8)            7.4796         estimate D2E/DX2                !
 ! D207  D(9,10,13,16)          41.2404         estimate D2E/DX2                !
 ! D208  D(9,10,13,17)          85.0734         estimate D2E/DX2                !
 ! D209  D(9,10,13,18)         -75.6001         estimate D2E/DX2                !
 ! D210  D(9,10,13,36)         133.69           estimate D2E/DX2                !
 ! D211  D(9,10,13,37)        -173.2891         estimate D2E/DX2                !
 ! D212  D(9,10,13,39)         167.1901         estimate D2E/DX2                !
 ! D213  D(24,10,13,7)         178.3369         estimate D2E/DX2                !
 ! D214  D(24,10,13,8)         -90.8229         estimate D2E/DX2                !
 ! D215  D(24,10,13,16)        -57.0621         estimate D2E/DX2                !
 ! D216  D(24,10,13,17)        -13.2292         estimate D2E/DX2                !
 ! D217  D(24,10,13,18)       -173.9026         estimate D2E/DX2                !
 ! D218  D(24,10,13,36)         35.3875         estimate D2E/DX2                !
 ! D219  D(24,10,13,37)         88.4084         estimate D2E/DX2                !
 ! D220  D(24,10,13,39)         68.8876         estimate D2E/DX2                !
 ! D221  D(9,10,24,17)         -87.3401         estimate D2E/DX2                !
 ! D222  D(9,10,24,25)         172.0797         estimate D2E/DX2                !
 ! D223  D(9,10,24,26)         -10.8985         estimate D2E/DX2                !
 ! D224  D(9,10,24,28)          82.4738         estimate D2E/DX2                !
 ! D225  D(9,10,24,30)          64.7588         estimate D2E/DX2                !
 ! D226  D(9,10,24,33)        -175.8113         estimate D2E/DX2                !
 ! D227  D(9,10,24,36)        -135.9214         estimate D2E/DX2                !
 ! D228  D(13,10,24,17)         13.2534         estimate D2E/DX2                !
 ! D229  D(13,10,24,25)        -87.3268         estimate D2E/DX2                !
 ! D230  D(13,10,24,26)         89.695          estimate D2E/DX2                !
 ! D231  D(13,10,24,28)       -176.9327         estimate D2E/DX2                !
 ! D232  D(13,10,24,30)        165.3523         estimate D2E/DX2                !
 ! D233  D(13,10,24,33)        -75.2178         estimate D2E/DX2                !
 ! D234  D(13,10,24,36)        -35.3279         estimate D2E/DX2                !
 ! D235  D(9,11,12,27)         -76.8344         estimate D2E/DX2                !
 ! D236  D(1,12,14,21)          34.4534         estimate D2E/DX2                !
 ! D237  D(2,12,14,21)          85.8242         estimate D2E/DX2                !
 ! D238  D(5,12,14,21)         -20.3769         estimate D2E/DX2                !
 ! D239  D(9,12,14,21)          75.957          estimate D2E/DX2                !
 ! D240  D(11,12,14,21)        -93.9948         estimate D2E/DX2                !
 ! D241  D(15,12,14,21)       -176.7293         estimate D2E/DX2                !
 ! D242  D(27,12,14,21)        179.1767         estimate D2E/DX2                !
 ! D243  D(1,12,27,26)          35.7146         estimate D2E/DX2                !
 ! D244  D(1,12,27,28)         -72.9666         estimate D2E/DX2                !
 ! D245  D(1,12,27,29)         132.2204         estimate D2E/DX2                !
 ! D246  D(2,12,27,26)          -9.744          estimate D2E/DX2                !
 ! D247  D(2,12,27,28)        -118.4251         estimate D2E/DX2                !
 ! D248  D(2,12,27,29)          86.7618         estimate D2E/DX2                !
 ! D249  D(5,12,27,26)         106.2415         estimate D2E/DX2                !
 ! D250  D(5,12,27,28)          -2.4396         estimate D2E/DX2                !
 ! D251  D(5,12,27,29)        -157.2526         estimate D2E/DX2                !
 ! D252  D(14,12,27,26)       -102.4405         estimate D2E/DX2                !
 ! D253  D(14,12,27,28)        148.8784         estimate D2E/DX2                !
 ! D254  D(14,12,27,29)         -5.9346         estimate D2E/DX2                !
 ! D255  D(7,13,17,24)          49.2202         estimate D2E/DX2                !
 ! D256  D(8,13,17,24)          96.2865         estimate D2E/DX2                !
 ! D257  D(10,13,17,24)         13.1271         estimate D2E/DX2                !
 ! D258  D(16,13,17,24)       -179.4281         estimate D2E/DX2                !
 ! D259  D(18,13,17,24)        172.2425         estimate D2E/DX2                !
 ! D260  D(37,13,17,24)        -73.2101         estimate D2E/DX2                !
 ! D261  D(39,13,17,24)       -126.4286         estimate D2E/DX2                !
 ! D262  D(8,13,18,19)          90.2312         estimate D2E/DX2                !
 ! D263  D(8,13,18,20)         -15.6359         estimate D2E/DX2                !
 ! D264  D(8,13,18,42)         147.5247         estimate D2E/DX2                !
 ! D265  D(8,13,18,43)        -155.7346         estimate D2E/DX2                !
 ! D266  D(10,13,18,19)        169.499          estimate D2E/DX2                !
 ! D267  D(10,13,18,20)         63.6319         estimate D2E/DX2                !
 ! D268  D(10,13,18,42)       -133.2074         estimate D2E/DX2                !
 ! D269  D(10,13,18,43)        -76.4667         estimate D2E/DX2                !
 ! D270  D(17,13,18,19)         19.4203         estimate D2E/DX2                !
 ! D271  D(17,13,18,20)        -86.4468         estimate D2E/DX2                !
 ! D272  D(17,13,18,42)         76.7138         estimate D2E/DX2                !
 ! D273  D(17,13,18,43)        133.4545         estimate D2E/DX2                !
 ! D274  D(36,13,18,19)        -53.0667         estimate D2E/DX2                !
 ! D275  D(36,13,18,20)       -158.9337         estimate D2E/DX2                !
 ! D276  D(36,13,18,42)          4.2269         estimate D2E/DX2                !
 ! D277  D(36,13,18,43)         60.9676         estimate D2E/DX2                !
 ! D278  D(37,13,18,19)        -96.5867         estimate D2E/DX2                !
 ! D279  D(37,13,18,20)        157.5463         estimate D2E/DX2                !
 ! D280  D(37,13,18,42)        -39.2931         estimate D2E/DX2                !
 ! D281  D(37,13,18,43)         17.4476         estimate D2E/DX2                !
 ! D282  D(39,13,18,19)        -48.4453         estimate D2E/DX2                !
 ! D283  D(39,13,18,20)       -154.3123         estimate D2E/DX2                !
 ! D284  D(39,13,18,42)          8.8483         estimate D2E/DX2                !
 ! D285  D(39,13,18,43)         65.589          estimate D2E/DX2                !
 ! D286  D(7,13,36,24)         -97.7874         estimate D2E/DX2                !
 ! D287  D(7,13,36,25)         -49.8643         estimate D2E/DX2                !
 ! D288  D(7,13,36,33)         -96.7919         estimate D2E/DX2                !
 ! D289  D(7,13,36,35)        -174.8809         estimate D2E/DX2                !
 ! D290  D(7,13,36,38)         112.947          estimate D2E/DX2                !
 ! D291  D(8,13,36,24)          45.443          estimate D2E/DX2                !
 ! D292  D(8,13,36,25)          93.3661         estimate D2E/DX2                !
 ! D293  D(8,13,36,33)          46.4385         estimate D2E/DX2                !
 ! D294  D(8,13,36,35)         -31.6505         estimate D2E/DX2                !
 ! D295  D(8,13,36,38)        -103.8226         estimate D2E/DX2                !
 ! D296  D(10,13,36,24)        -29.7822         estimate D2E/DX2                !
 ! D297  D(10,13,36,25)         18.1409         estimate D2E/DX2                !
 ! D298  D(10,13,36,33)        -28.7867         estimate D2E/DX2                !
 ! D299  D(10,13,36,35)       -106.8757         estimate D2E/DX2                !
 ! D300  D(10,13,36,38)       -179.0478         estimate D2E/DX2                !
 ! D301  D(16,13,36,24)        131.8989         estimate D2E/DX2                !
 ! D302  D(16,13,36,25)        179.822          estimate D2E/DX2                !
 ! D303  D(16,13,36,33)        132.8943         estimate D2E/DX2                !
 ! D304  D(16,13,36,35)         54.8054         estimate D2E/DX2                !
 ! D305  D(16,13,36,38)        -17.3667         estimate D2E/DX2                !
 ! D306  D(18,13,36,24)        179.0844         estimate D2E/DX2                !
 ! D307  D(18,13,36,25)       -132.9925         estimate D2E/DX2                !
 ! D308  D(18,13,36,33)       -179.9201         estimate D2E/DX2                !
 ! D309  D(18,13,36,35)        101.991          estimate D2E/DX2                !
 ! D310  D(18,13,36,38)         29.8188         estimate D2E/DX2                !
 ! D311  D(7,13,39,38)        -167.8116         estimate D2E/DX2                !
 ! D312  D(7,13,39,40)         -18.3058         estimate D2E/DX2                !
 ! D313  D(7,13,39,41)          62.7534         estimate D2E/DX2                !
 ! D314  D(8,13,39,38)          81.8688         estimate D2E/DX2                !
 ! D315  D(8,13,39,40)        -128.6255         estimate D2E/DX2                !
 ! D316  D(8,13,39,41)         -47.5662         estimate D2E/DX2                !
 ! D317  D(10,13,39,38)        -68.6564         estimate D2E/DX2                !
 ! D318  D(10,13,39,40)         80.8494         estimate D2E/DX2                !
 ! D319  D(10,13,39,41)        161.9086         estimate D2E/DX2                !
 ! D320  D(17,13,39,38)         10.6392         estimate D2E/DX2                !
 ! D321  D(17,13,39,40)        160.1449         estimate D2E/DX2                !
 ! D322  D(17,13,39,41)       -118.7958         estimate D2E/DX2                !
 ! D323  D(18,13,39,38)        153.0747         estimate D2E/DX2                !
 ! D324  D(18,13,39,40)        -57.4195         estimate D2E/DX2                !
 ! D325  D(18,13,39,41)         23.6397         estimate D2E/DX2                !
 ! D326  D(12,14,21,1)         -32.9715         estimate D2E/DX2                !
 ! D327  D(12,14,21,5)          22.7815         estimate D2E/DX2                !
 ! D328  D(12,14,21,22)        144.6167         estimate D2E/DX2                !
 ! D329  D(12,14,21,23)        -89.5351         estimate D2E/DX2                !
 ! D330  D(39,16,18,7)          80.7214         estimate D2E/DX2                !
 ! D331  D(39,16,18,19)       -102.1947         estimate D2E/DX2                !
 ! D332  D(39,16,18,20)        175.4361         estimate D2E/DX2                !
 ! D333  D(39,16,18,42)        -57.2038         estimate D2E/DX2                !
 ! D334  D(39,16,18,43)        -22.8838         estimate D2E/DX2                !
 ! D335  D(18,16,39,36)       -116.7754         estimate D2E/DX2                !
 ! D336  D(18,16,39,37)        -63.8476         estimate D2E/DX2                !
 ! D337  D(18,16,39,38)       -173.5152         estimate D2E/DX2                !
 ! D338  D(18,16,39,40)         53.7628         estimate D2E/DX2                !
 ! D339  D(18,16,39,41)         91.2886         estimate D2E/DX2                !
 ! D340  D(13,17,24,10)        -13.3059         estimate D2E/DX2                !
 ! D341  D(13,17,24,25)         65.669          estimate D2E/DX2                !
 ! D342  D(13,17,24,26)        -96.6593         estimate D2E/DX2                !
 ! D343  D(13,17,24,28)        -52.6915         estimate D2E/DX2                !
 ! D344  D(13,17,24,30)       -164.1763         estimate D2E/DX2                !
 ! D345  D(13,17,24,32)        176.0252         estimate D2E/DX2                !
 ! D346  D(13,17,24,33)        121.2199         estimate D2E/DX2                !
 ! D347  D(7,18,20,6)           31.2171         estimate D2E/DX2                !
 ! D348  D(13,18,20,6)         -22.5352         estimate D2E/DX2                !
 ! D349  D(16,18,20,6)         -81.9806         estimate D2E/DX2                !
 ! D350  D(19,18,20,6)        -160.787          estimate D2E/DX2                !
 ! D351  D(42,18,20,6)         175.0946         estimate D2E/DX2                !
 ! D352  D(43,18,20,6)         114.3186         estimate D2E/DX2                !
 ! D353  D(7,18,42,40)         -54.5653         estimate D2E/DX2                !
 ! D354  D(7,18,42,41)        -103.6428         estimate D2E/DX2                !
 ! D355  D(7,18,42,44)          85.5266         estimate D2E/DX2                !
 ! D356  D(13,18,42,40)         18.3314         estimate D2E/DX2                !
 ! D357  D(13,18,42,41)        -30.746          estimate D2E/DX2                !
 ! D358  D(13,18,42,44)        158.4233         estimate D2E/DX2                !
 ! D359  D(16,18,42,40)         68.0234         estimate D2E/DX2                !
 ! D360  D(16,18,42,41)         18.946          estimate D2E/DX2                !
 ! D361  D(16,18,42,44)       -151.8847         estimate D2E/DX2                !
 ! D362  D(20,18,42,40)        178.9198         estimate D2E/DX2                !
 ! D363  D(20,18,42,41)        129.8424         estimate D2E/DX2                !
 ! D364  D(20,18,42,44)        -40.9883         estimate D2E/DX2                !
 ! D365  D(10,24,26,9)          10.9431         estimate D2E/DX2                !
 ! D366  D(10,24,26,27)         86.0535         estimate D2E/DX2                !
 ! D367  D(17,24,26,9)          96.4202         estimate D2E/DX2                !
 ! D368  D(17,24,26,27)        171.5306         estimate D2E/DX2                !
 ! D369  D(25,24,26,9)          20.4855         estimate D2E/DX2                !
 ! D370  D(25,24,26,27)         95.596          estimate D2E/DX2                !
 ! D371  D(28,24,26,9)         -72.4782         estimate D2E/DX2                !
 ! D372  D(28,24,26,27)          2.6322         estimate D2E/DX2                !
 ! D373  D(30,24,26,9)        -124.0219         estimate D2E/DX2                !
 ! D374  D(30,24,26,27)        -48.9114         estimate D2E/DX2                !
 ! D375  D(32,24,26,9)        -176.2562         estimate D2E/DX2                !
 ! D376  D(32,24,26,27)       -101.1457         estimate D2E/DX2                !
 ! D377  D(33,24,26,9)         173.7845         estimate D2E/DX2                !
 ! D378  D(33,24,26,27)       -111.105          estimate D2E/DX2                !
 ! D379  D(36,24,26,9)          88.3117         estimate D2E/DX2                !
 ! D380  D(36,24,26,27)        163.4222         estimate D2E/DX2                !
 ! D381  D(10,24,28,27)        -84.1679         estimate D2E/DX2                !
 ! D382  D(17,24,28,27)        -44.7946         estimate D2E/DX2                !
 ! D383  D(25,24,28,27)       -164.4822         estimate D2E/DX2                !
 ! D384  D(26,24,28,27)         -2.4531         estimate D2E/DX2                !
 ! D385  D(32,24,28,27)         84.6078         estimate D2E/DX2                !
 ! D386  D(33,24,28,27)        141.4357         estimate D2E/DX2                !
 ! D387  D(36,24,28,27)       -157.2758         estimate D2E/DX2                !
 ! D388  D(10,24,30,27)        -36.5288         estimate D2E/DX2                !
 ! D389  D(10,24,30,29)        -70.1374         estimate D2E/DX2                !
 ! D390  D(10,24,30,31)        117.3226         estimate D2E/DX2                !
 ! D391  D(17,24,30,27)        101.8002         estimate D2E/DX2                !
 ! D392  D(17,24,30,29)         68.1916         estimate D2E/DX2                !
 ! D393  D(17,24,30,31)       -104.3483         estimate D2E/DX2                !
 ! D394  D(25,24,30,27)       -131.2428         estimate D2E/DX2                !
 ! D395  D(25,24,30,29)       -164.8514         estimate D2E/DX2                !
 ! D396  D(25,24,30,31)         22.6087         estimate D2E/DX2                !
 ! D397  D(26,24,30,27)         37.8066         estimate D2E/DX2                !
 ! D398  D(26,24,30,29)          4.198          estimate D2E/DX2                !
 ! D399  D(26,24,30,31)       -168.342          estimate D2E/DX2                !
 ! D400  D(33,24,30,27)       -176.9806         estimate D2E/DX2                !
 ! D401  D(33,24,30,29)        149.4108         estimate D2E/DX2                !
 ! D402  D(33,24,30,31)        -23.1291         estimate D2E/DX2                !
 ! D403  D(36,24,30,27)        175.469          estimate D2E/DX2                !
 ! D404  D(36,24,30,29)        141.8604         estimate D2E/DX2                !
 ! D405  D(36,24,30,31)        -30.6796         estimate D2E/DX2                !
 ! D406  D(10,24,33,34)       -171.2455         estimate D2E/DX2                !
 ! D407  D(10,24,33,35)         77.7329         estimate D2E/DX2                !
 ! D408  D(10,24,33,46)        -72.0314         estimate D2E/DX2                !
 ! D409  D(17,24,33,34)        104.3174         estimate D2E/DX2                !
 ! D410  D(17,24,33,35)         -6.7042         estimate D2E/DX2                !
 ! D411  D(17,24,33,46)       -156.4685         estimate D2E/DX2                !
 ! D412  D(26,24,33,34)         32.9824         estimate D2E/DX2                !
 ! D413  D(26,24,33,35)        -78.0392         estimate D2E/DX2                !
 ! D414  D(26,24,33,46)        132.1965         estimate D2E/DX2                !
 ! D415  D(28,24,33,34)        -77.4087         estimate D2E/DX2                !
 ! D416  D(28,24,33,35)        171.5697         estimate D2E/DX2                !
 ! D417  D(28,24,33,46)         21.8054         estimate D2E/DX2                !
 ! D418  D(30,24,33,34)        -31.8496         estimate D2E/DX2                !
 ! D419  D(30,24,33,35)       -142.8712         estimate D2E/DX2                !
 ! D420  D(30,24,33,46)         67.3645         estimate D2E/DX2                !
 ! D421  D(10,24,36,13)         30.2481         estimate D2E/DX2                !
 ! D422  D(10,24,36,35)       -175.0074         estimate D2E/DX2                !
 ! D423  D(10,24,36,37)        -14.0788         estimate D2E/DX2                !
 ! D424  D(10,24,36,38)        109.8501         estimate D2E/DX2                !
 ! D425  D(10,24,36,39)         36.8282         estimate D2E/DX2                !
 ! D426  D(26,24,36,13)        -46.0904         estimate D2E/DX2                !
 ! D427  D(26,24,36,35)        108.654          estimate D2E/DX2                !
 ! D428  D(26,24,36,37)        -90.4173         estimate D2E/DX2                !
 ! D429  D(26,24,36,38)         33.5115         estimate D2E/DX2                !
 ! D430  D(26,24,36,39)        -39.5104         estimate D2E/DX2                !
 ! D431  D(28,24,36,13)        103.2969         estimate D2E/DX2                !
 ! D432  D(28,24,36,35)       -101.9587         estimate D2E/DX2                !
 ! D433  D(28,24,36,37)         58.97           estimate D2E/DX2                !
 ! D434  D(28,24,36,38)       -177.1011         estimate D2E/DX2                !
 ! D435  D(28,24,36,39)        109.877          estimate D2E/DX2                !
 ! D436  D(30,24,36,13)       -172.5662         estimate D2E/DX2                !
 ! D437  D(30,24,36,35)        -17.8218         estimate D2E/DX2                !
 ! D438  D(30,24,36,37)        143.1069         estimate D2E/DX2                !
 ! D439  D(30,24,36,38)        -92.9642         estimate D2E/DX2                !
 ! D440  D(30,24,36,39)       -165.9861         estimate D2E/DX2                !
 ! D441  D(32,24,36,13)       -136.2009         estimate D2E/DX2                !
 ! D442  D(32,24,36,35)         18.5435         estimate D2E/DX2                !
 ! D443  D(32,24,36,37)        179.4722         estimate D2E/DX2                !
 ! D444  D(32,24,36,38)        -56.5989         estimate D2E/DX2                !
 ! D445  D(32,24,36,39)       -129.6208         estimate D2E/DX2                !
 ! D446  D(24,25,33,36)        -80.5255         estimate D2E/DX2                !
 ! D447  D(24,26,27,11)        -88.2621         estimate D2E/DX2                !
 ! D448  D(24,26,27,12)       -136.5772         estimate D2E/DX2                !
 ! D449  D(24,26,27,15)        174.676          estimate D2E/DX2                !
 ! D450  D(24,26,27,28)         -2.7333         estimate D2E/DX2                !
 ! D451  D(24,26,27,29)         90.5868         estimate D2E/DX2                !
 ! D452  D(24,26,27,30)         44.8213         estimate D2E/DX2                !
 ! D453  D(9,27,28,24)          59.4583         estimate D2E/DX2                !
 ! D454  D(11,27,28,24)        110.1932         estimate D2E/DX2                !
 ! D455  D(12,27,28,24)        107.9664         estimate D2E/DX2                !
 ! D456  D(15,27,28,24)       -171.7158         estimate D2E/DX2                !
 ! D457  D(26,27,28,24)          2.8324         estimate D2E/DX2                !
 ! D458  D(29,27,28,24)        -90.3426         estimate D2E/DX2                !
 ! D459  D(9,27,30,24)          -4.0466         estimate D2E/DX2                !
 ! D460  D(9,27,30,31)        -152.0482         estimate D2E/DX2                !
 ! D461  D(9,27,30,32)          39.8329         estimate D2E/DX2                !
 ! D462  D(11,27,30,24)         67.8206         estimate D2E/DX2                !
 ! D463  D(11,27,30,31)        -80.181          estimate D2E/DX2                !
 ! D464  D(11,27,30,32)        111.7001         estimate D2E/DX2                !
 ! D465  D(15,27,30,24)       -151.11           estimate D2E/DX2                !
 ! D466  D(15,27,30,31)         60.8884         estimate D2E/DX2                !
 ! D467  D(15,27,30,32)       -107.2305         estimate D2E/DX2                !
 ! D468  D(26,27,30,24)        -43.8647         estimate D2E/DX2                !
 ! D469  D(26,27,30,31)        168.1337         estimate D2E/DX2                !
 ! D470  D(26,27,30,32)          0.0147         estimate D2E/DX2                !
 ! D471  D(24,30,31,45)         13.278          estimate D2E/DX2                !
 ! D472  D(27,30,31,45)        145.5588         estimate D2E/DX2                !
 ! D473  D(28,30,31,45)         82.9537         estimate D2E/DX2                !
 ! D474  D(29,30,31,45)       -159.3558         estimate D2E/DX2                !
[...]
 ,-0.00003623,-0.00000525,-0.00106470,0.00002637,-0.00310746,0.00118211
 ,0.00011061,-0.00061676,0.00022331,-0.00002091,0.00177558,-0.00405049,
 0.00117674,-0.23260172,-0.07692548,-0.03677795,-0.00431669,0.00226105,
 0.00117565,0.24190411,-0.00008818,0.00002714,-0.00008404,0.00000191,-0
 .00001788,0.00001946,0.00000834,0.00008801,-0.00006666,0.00005425,0.00
 000419,-0.00005710,-0.00001891,0.00000412,0.00002240,0.00008159,-0.000
 02203,0.00029616,-0.00020901,-0.00006125,0.00006751,-0.00002285,-0.000
 06250,0.00004499,-0.00002746,-0.00005392,-0.00001579,-0.00005799,-0.00
 004260,0.00006570,-0.00003903,-0.00000543,0.00000089,-0.00002076,0.000
 02947,0.00003377,0.00029648,0.00030601,-0.00021394,-0.00000580,0.00000
 982,-0.00002116,-0.00002862,0.00000322,-0.00001980,-0.00010844,-0.0000
 0075,-0.00006750,-0.00004942,-0.00002405,0.00001809,-0.00588210,0.0016
 3462,-0.00304313,-0.00122545,0.00031558,-0.00090462,0.00055717,-0.0002
 5095,-0.00041491,0.00011682,-0.00018944,0.00007617,-0.00006661,0.00015
 497,-0.00005908,-0.00000004,0.00000312,-0.00002968,-0.00018585,-0.0000
 4441,-0.00008402,0.00006147,0.00002964,-0.00002165,0.00003465,0.000003
 45,0.00000263,0.00001815,0.00000673,0.00004108,-0.00001111,0.00000977,
 0.00000095,-0.00003436,0.00000518,-0.00006087,0.00012508,0.00002721,0.
 00006846,-0.00003324,-0.00004584,0.00005378,0.00002219,0.00000781,-0.0
 0001725,-0.00033575,0.00008322,-0.00003741,0.00004490,-0.00005603,0.00
 000010,0.00015100,-0.00002871,-0.00002120,0.00026557,-0.00022098,0.000
 14702,-0.00014483,0.00006963,-0.00009496,-0.00001684,-0.00083462,0.000
 05903,-0.00041991,0.00088664,-0.00063049,0.00065589,0.00023233,0.00022
 735,-0.00369841,0.00017354,-0.00137705,-0.07146356,-0.04194750,-0.0122
 8343,0.00335720,0.00334423,0.00100052,0.07832136,0.03640361,-0.0000332
 3,-0.00002266,-0.00009607,0.00002645,0.00000787,-0.00000311,-0.0000037
 5,0.00001641,0.00001039,0.00002557,0.00000584,-0.00005237,-0.00003365,
 0.00000137,0.00002644,0.00044935,0.00016783,-0.00009464,-0.00028403,0.
 00021432,-0.00002489,0.00000539,-0.00007337,0.00001190,-0.00028331,-0.
 00013159,0.00000081,-0.00003626,0.00001203,-0.00001605,-0.00004170,0.0
 0001418,-0.00002814,0.00003147,0.00006466,0.00005358,-0.00021706,-0.00
 053602,0.00024660,-0.00001378,-0.00000647,-0.00000999,-0.00000046,-0.0
 0001127,0.00001268,0.00044989,0.00040466,0.00061620,0.00002283,0.00006
 458,-0.00007205,0.00320638,-0.00099879,0.00109997,-0.01110731,-0.00262
 526,-0.00442625,-0.00019884,0.00026066,-0.00060846,0.00010894,-0.00009
 870,0.00004734,-0.00003829,0.00008781,-0.00003415,0.00000097,0.0000049
 5,-0.00002475,0.00007413,-0.00001868,0.00001210,0.00002993,-0.00000876
 ,0.00000884,0.00007821,-0.00001835,-0.00000896,-0.00006288,0.00003894,
 0.00008012,-0.00001279,0.00002214,-0.00001151,-0.00001160,0.00000861,-
 0.00002717,0.00010585,0.00001313,-0.00003992,-0.00003561,-0.00004309,0
 .00008913,-0.00000716,-0.00000477,0.00001594,-0.00000697,-0.00003578,0
 .00000252,-0.00000124,-0.00000819,-0.00000921,0.00000351,-0.00000087,0
 .00001711,-0.00020079,0.00020827,-0.00002883,0.00018353,-0.00014421,0.
 00011907,0.00013831,0.00031740,-0.00008286,-0.00299641,-0.00129917,0.0
 0090611,0.00006548,0.00046528,0.00072958,0.00158180,-0.00109823,0.0001
 0371,-0.03884884,-0.01525265,-0.02309457,-0.00126842,0.00262266,0.0007
 3519,0.04922146,0.01738683,0.02387661,0.00054668,-0.00049518,-0.001387
 43,0.00047318,0.00040822,-0.00015692,-0.00022193,0.00033729,-0.0000681
 8,0.00007817,-0.00023675,0.00022755,-0.00035677,-0.00008528,0.00030606
 ,0.00039087,-0.00002083,0.00042887,0.00010562,0.00080816,-0.00074728,-
 0.00011800,-0.00014284,0.00006141,-0.00171902,-0.00064123,-0.00071324,
 -0.00047179,-0.00001491,0.00029561,-0.00054612,-0.00009548,-0.00013359
 ,0.00041995,0.00075150,0.00028359,0.00029479,0.00159746,-0.00061887,-0
 .00009508,-0.00008905,0.00002373,0.00040682,0.00059437,-0.00034102,0.0
 0014080,-0.00023126,0.00028920,0.00037331,0.00010910,0.00041879,0.0006
 7330,-0.00005019,0.00080085,-0.00023868,0.00012085,-0.00015865,-0.0006
 5053,0.00035143,-0.00000649,0.00058495,0.00013506,0.00003253,-0.000023
 71,0.00001798,-0.00000933,0.00004553,-0.00004873,0.00000189,-0.0014456
 1,0.00041661,-0.00449104,-0.00225002,-0.00152508,0.00249156,0.00090018
 ,-0.00011676,0.00005301,-0.00151843,-0.00207812,0.00279540,-0.00017203
 ,-0.00081883,-0.00002411,0.00159211,0.00072170,-0.00025597,0.01431828,
 0.01035501,-0.00768980,-0.05393898,0.00415849,-0.02200022,-0.00253410,
 0.00063448,0.00293415,-0.02626078,-0.00794454,0.01271271,-0.08628973,0
 .07149869,0.04568997,-0.00307929,-0.00019769,0.00165341,0.00678214,0.0
 0026256,-0.00295898,-0.00050583,0.00077561,-0.00062522,-0.00096218,0.0
 0014184,0.00039058,-0.00175326,-0.00228640,0.00074312,-0.00007005,0.00
 003166,0.00017385,0.00000394,0.00016786,-0.00013901,-0.00021084,-0.000
 11530,-0.00007927,-0.00027408,-0.00021030,-0.00002906,0.00021773,0.000
 12048,-0.00001200,0.30798674,-0.00041867,0.00008026,0.00086593,-0.0003
 7963,-0.00012844,0.00006049,0.00034722,-0.00005370,-0.00025877,0.00012
 973,0.00001099,0.00014763,0.00015799,0.00011791,-0.00009183,-0.0001977
 4,0.00004472,-0.00018580,0.00000641,0.00008782,0.00001479,0.00010699,0
 .00004733,0.00002759,0.00060259,0.00040015,0.00002056,0.00000708,-0.00
 096508,-0.00011728,0.00045943,0.00011543,0.00043967,0.00046300,-0.0005
 9542,-0.00056801,0.00029416,-0.00013595,0.00059642,0.00000370,0.000031
 09,-0.00004327,-0.00067425,-0.00003537,0.00011777,0.00001647,0.0000873
 8,0.00007379,0.00037059,0.00003474,0.00025789,-0.00000416,0.00005823,0
 .00012480,-0.00008874,0.00006701,-0.00008212,0.00002608,0.00003351,-0.
 00023981,0.00006353,-0.00046039,0.00014510,-0.00011773,0.00031640,-0.0
 0012322,-0.00005937,0.00002668,-0.00003398,-0.00130633,0.00285940,-0.0
 0611241,-0.00217031,-0.00347350,-0.00042298,-0.00007982,0.00027600,0.0
 0022072,0.00090149,0.00090909,-0.00033973,-0.00026429,-0.00211675,-0.0
 0018349,0.00083016,-0.00052500,-0.00002482,-0.00358051,0.00082955,0.00
 775575,0.01425781,-0.02443651,0.01773702,0.00216794,-0.00178045,-0.002
 36162,-0.00645150,0.01855321,0.01826770,0.06763942,-0.10431232,-0.0404
 2803,0.00076875,0.00045834,0.00094855,0.00012918,-0.00255214,-0.001733
 62,-0.00047149,0.00015942,-0.00002439,0.00051000,0.00049895,0.00041197
 ,0.00034002,-0.00058812,-0.00097790,-0.00000080,0.00004481,0.00009137,
 0.00002512,0.00002289,-0.00002449,-0.00035122,-0.00014093,-0.00000854,
 0.00007361,-0.00001023,0.00003806,0.00030380,0.00014442,0.00004417,0.0
 4362935,0.28660794,0.00068106,-0.00037790,-0.00152917,0.00046170,0.000
 32240,-0.00020361,-0.00033604,0.00005520,0.00026525,-0.00026594,-0.000
 12706,0.00020367,-0.00033972,-0.00012486,0.00021047,0.00033782,0.00023
 723,-0.00026082,0.00020157,-0.00008608,-0.00010726,-0.00004589,-0.0000
 8758,-0.00002354,-0.00134820,-0.00067392,-0.00028886,0.00047692,0.0001
 8545,0.00054164,-0.00076751,-0.00030199,-0.00029871,0.00042608,0.00103
 513,0.00052751,0.00032158,-0.00007303,-0.00017985,-0.00003484,-0.00014
 003,0.00006127,0.00053505,0.00017847,-0.00026676,0.00000159,-0.0000547
 1,-0.00005348,0.00023774,0.00026587,0.00059664,0.00012314,0.00008360,0
 .00016318,0.00004507,0.00002099,0.00004579,-0.00029437,0.00000580,0.00
 013650,0.00002445,0.00072179,-0.00005936,0.00017317,-0.00047983,0.0001
 7617,0.00017187,-0.00009546,0.00007294,-0.00481692,-0.00092578,-0.0031
 5909,0.00156917,-0.00005099,-0.00183008,0.00066627,-0.00004109,0.00027
 180,-0.00054576,-0.00170456,0.00412651,0.00034975,-0.00122610,-0.00087
 665,-0.00022231,-0.00080075,-0.00145260,0.01317006,0.01300376,-0.00859
 856,-0.04651957,0.01099593,-0.04919873,0.00356155,0.00304573,-0.001230
 87,-0.00102756,0.01749290,0.00349850,0.04313586,-0.05269489,-0.0396038
 9,0.00242498,-0.00249787,0.00095059,0.00115185,-0.00052636,0.00027208,
 0.00004605,0.00004453,0.00015548,0.00004239,0.00021136,-0.00040629,-0.
 00025115,-0.00033764,0.00075490,-0.00001805,-0.00002507,-0.00009224,-0
 .00003962,0.00002163,0.00002997,0.00048897,0.00009962,0.00005090,-0.00
 017203,-0.00008061,-0.00009696,-0.00040681,-0.00018424,-0.00008355,-0.
 09466972,-0.02543730,0.29644082,0.00008342,-0.00002714,0.00004336,0.00
 003522,-0.00002877,0.00000289,-0.00002071,-0.00000782,-0.00002078,-0.0
 0004269,0.00001190,-0.00001068,0.00000300,-0.00001950,-0.00000537,0.00
 000813,0.00003795,0.00007787,-0.00014329,0.00009368,-0.00018419,0.0000
 5480,-0.00005276,0.00001999,-0.00010462,0.00002728,-0.00005332,-0.0003
 7225,-0.00004460,-0.00028033,0.00005361,0.00006587,0.00001972,-0.00011
 854,0.00002695,0.00015087,-0.00029799,0.00019483,0.00010070,0.00000832
 ,-0.00001025,0.00001498,0.00007330,-0.00029721,0.00020246,0.00004914,0
 .00000894,0.00002026,0.00012794,-0.00047968,-0.00057399,0.00010349,-0.
 00005072,-0.00007113,-0.00000327,0.00000823,0.00003902,-0.00000167,0.0
 0000210,0.00008998,-0.00005461,0.00006901,-0.00002346,0.00002597,-0.00
 005486,0.00002549,0.00001164,-0.00000165,0.00001145,0.00213165,-0.0018
 2438,0.00240554,-0.00564516,-0.00489157,0.00810692,0.00003647,-0.00019
 365,-0.00009918,-0.00030120,0.00081796,-0.00107618,0.00026588,0.001069
 75,0.00008369,0.00006071,-0.00017135,0.00056243,-0.00434515,-0.0039653
 3,0.00103828,-0.00312155,0.00423528,-0.01033789,0.00180146,0.00044711,
 0.00068736,-0.01336069,-0.00224941,0.01149267,0.01420943,0.00262518,-0
 .00301079,-0.00358424,0.00261387,-0.00242141,0.00019723,0.00068128,0.0
 0037241,-0.00017988,-0.00001769,-0.00021506,-0.00002865,0.00001531,0.0
 0017964,-0.00001754,-0.00001164,-0.00010029,-0.00002622,-0.00002391,0.
 00002412,-0.00002301,0.00002403,0.00001033,0.00005238,0.00001925,-0.00
 007380,-0.00001800,0.00000103,-0.00000857,-0.00004086,-0.00001192,-0.0
 0001495,-0.05913415,-0.05822234,-0.02145488,0.07626079,-0.00000957,0.0
 0004192,0.00018411,-0.00001044,-0.00006377,-0.00001835,-0.00004277,-0.
 00004118,0.00001564,0.00001117,0.00004074,-0.00007160,0.00004810,-0.00
 001344,-0.00002731,-0.00007152,0.00004212,0.00010264,-0.00013086,-0.00
 017884,-0.00000500,-0.00000649,0.00000526,-0.00001242,0.00035417,0.000
 14473,-0.00002517,-0.00028674,0.00043164,-0.00010553,0.00003335,-0.000
 00605,0.00009582,-0.00029348,-0.00014707,0.00004181,-0.00014744,-0.000
 23336,-0.00002407,0.00000666,0.00002229,0.00000498,0.00012985,-0.00007
 059,0.00010953,-0.00002522,0.00003378,-0.00004399,-0.00036631,-0.00013
 211,-0.00070306,-0.00008674,-0.00000030,-0.00024684,0.00005372,-0.0000
 5089,0.00004478,0.00012963,-0.00008178,0.00005604,-0.00007172,-0.00001
 306,-0.00004399,0.00000258,-0.00000614,0.00000432,-0.00002009,0.000017
 79,-0.00000339,0.00183337,-0.00170103,0.00319279,-0.00569103,-0.000222
 46,0.00791119,0.00000459,0.00001590,-0.00009105,-0.00018071,0.00024789
 ,-0.00109985,-0.00030500,0.00112316,0.00071803,-0.00014826,0.00043547,
 0.00015848,-0.00386641,-0.00500948,-0.00088916,0.00110485,0.01103039,-
 0.00762989,-0.00144883,-0.00003721,0.00030172,0.01300341,-0.01787104,-
 0.02383406,0.00059833,-0.01140828,-0.00761491,-0.00093336,0.00133588,-
 0.00158187,0.00092607,0.00039602,0.00052326,0.00005880,-0.00008171,0.0
 0045022,-0.00043577,-0.00025468,0.00009156,-0.00018001,0.00078160,-0.0
 0011820,0.00005126,-0.00001422,-0.00001445,-0.00003864,-0.00008134,0.0
 0005718,0.00001911,0.00004284,0.00002589,0.00005764,0.00002808,0.00000
 107,-0.00002949,-0.00002468,0.00001310,-0.06143929,-0.09987221,-0.0395
 2699,0.06134598,0.12267115,-0.00009611,-0.00007894,-0.00013318,0.00000
 405,0.00004378,-0.00000273,0.00005627,0.00002899,-0.00001123,0.0000508
 7,-0.00002494,0.00006563,-0.00004563,0.00000206,0.00001748,0.00011187,
 0.00009684,-0.00008124,0.00002012,0.00008049,-0.00007192,0.00002407,0.
 00001350,0.00000091,-0.00032916,-0.00018394,0.00011252,-0.00007007,-0.
 00008894,-0.00010627,-0.00003790,-0.00000029,-0.00002863,0.00036717,0.
 00019512,-0.00014631,0.00052611,-0.00002344,-0.00003039,-0.00000236,0.
 00000489,-0.00001323,-0.00001532,0.00000203,0.00013734,0.00000013,0.00
 006274,0.00013585,-0.00019149,-0.00013500,-0.00037957,0.00005519,0.000
 00642,0.00020415,-0.00007107,0.00005040,-0.00008780,-0.00013602,0.0000
 6106,-0.00011475,0.00010288,-0.00000685,0.00001099,-0.00001094,0.00002
 615,-0.00001119,-0.00000074,-0.00000797,-0.00000209,0.00348022,0.00159
 261,-0.00117522,0.00437576,0.00465865,-0.00353226,-0.00038303,-0.00007
 604,0.00004196,-0.00003634,-0.00021592,0.00009673,0.00036674,0.0003310
 3,0.00049446,0.00029550,0.00017198,0.00046438,0.00007266,-0.00107634,0
 .00047414,-0.00373119,-0.00441242,-0.00143872,-0.00106056,-0.00052966,
 -0.00081989,0.01433441,-0.01218597,-0.04137510,-0.00171752,-0.00581989
 ,-0.00273615,0.00590795,-0.00126639,0.00211905,-0.00070683,-0.00130716
 ,0.00032440,-0.00006974,0.00030400,0.00039082,0.00036504,0.00028156,0.
 00012746,-0.00013738,-0.00076461,-0.00039276,0.00000682,0.00001438,0.0
 0003712,0.00002860,0.00001224,-0.00002604,-0.00010039,-0.00004117,-0.0
 0000223,-0.00006024,-0.00005851,0.00000959,0.00008644,0.00003744,0.000
 00171,-0.03278058,-0.04755800,-0.04371027,0.01036828,0.06418475,0.0831
 4808,0.00013423,-0.00006334,-0.00009520,0.00003667,0.00003565,-0.00002
 964,-0.00003448,-0.00003027,0.00004804,-0.00007050,0.00001404,0.000030
 79,-0.00000904,-0.00002973,0.00000050,0.00003695,0.00007113,-0.0001759
 0,0.00000435,-0.00009344,0.00006633,0.00004096,0.00001624,-0.00003418,
 -0.00013984,-0.00004957,0.00004968,-0.00007004,0.00001468,0.00006460,-
 0.00006737,-0.00006818,-0.00007182,0.00006394,0.00012468,-0.00000691,-
 0.00006181,-0.00025123,0.00017365,0.00000368,-0.00002481,0.00003640,0.
 00014519,0.00000605,0.00009159,-0.00001062,0.00002552,-0.00004763,-0.0
 0001191,0.00002070,-0.00004380,-0.00007054,0.00003296,-0.00003441,0.00
 003424,-0.00000069,0.00005302,-0.00000423,-0.00003958,0.00002510,-0.00
 010407,0.00024395,-0.00007019,0.00008015,-0.00019476,0.00007476,0.0000
 3216,-0.00001567,0.00002964,-0.00030236,0.00004961,0.00007489,0.000082
 70,0.00058928,-0.00042899,0.00007943,-0.00009181,-0.00003204,-0.000148
 41,0.00000423,0.00027177,-0.00006584,0.00003810,0.00011530,-0.00026036
 ,-0.00009669,-0.00008107,0.00089660,0.00037509,-0.00085447,0.00747387,
 -0.00002216,0.00116414,0.00019371,-0.00060187,-0.00018216,0.00087797,-
 0.00125985,0.00089658,-0.00648038,0.00184092,0.00350094,0.00026643,0.0
 0054144,-0.00039863,-0.00033922,-0.00042814,0.00065833,0.00005550,-0.0
 0001457,0.00000198,0.00008177,0.00006252,-0.00010145,0.00022491,0.0002
 1207,0.00003108,-0.00002576,-0.00002801,-0.00006209,-0.00004512,-0.000
 00774,0.00003736,0.00021921,0.00007738,-0.00001312,-0.00002374,0.00000
 719,-0.00003156,-0.00019890,-0.00008804,-0.00003814,-0.09149414,-0.059
 79269,0.10275117,-0.00466801,-0.00350645,0.00078349,0.09364207,0.00016
 269,-0.00007433,-0.00027509,0.00012047,0.00004913,-0.00003788,-0.00009
 274,-0.00000085,0.00008272,-0.00006023,-0.00000098,0.00001245,-0.00005
 222,-0.00004222,0.00003631,0.00006589,0.00006084,-0.00007614,0.0000097
 4,-0.00006339,0.00001048,-0.00000057,-0.00001398,-0.00001345,-0.000291
 70,-0.00015267,-0.00001848,-0.00002737,0.00009436,0.00012843,-0.000160
 69,-0.00002814,-0.00005731,-0.00004550,0.00020068,0.00012901,-0.000050
 09,-0.00012436,0.00003328,-0.00000094,-0.00002243,0.00002563,0.0002091
 0,0.00000914,-0.00000747,-0.00000644,0.00000795,-0.00002281,-0.0000868
 7,0.00006182,-0.00008770,-0.00002593,0.00002114,-0.00001157,0.00002831
 ,-0.00000220,0.00003383,-0.00002726,-0.00002691,0.00004902,-0.00006314
 ,0.00023187,-0.00005708,0.00006715,-0.00017245,0.00006624,0.00003907,-
 0.00001868,0.00002162,0.00038588,-0.00056776,0.00010176,0.00020457,0.0
 0063060,-0.00019761,0.00004204,-0.00002155,-0.00001558,-0.00010391,-0.
 00031218,0.00017997,0.00013790,0.00019852,0.00013290,-0.00019635,0.000
 15614,0.00002973,0.00014502,0.00014037,-0.00048617,0.00184735,-0.00138
 462,0.00285941,0.00011509,0.00038318,-0.00009430,-0.00290814,-0.001089
 72,0.00042865,-0.00124138,0.01118300,-0.00311518,0.00057197,-0.0000394
 7,-0.00032623,-0.00012047,-0.00005442,0.00054401,0.00003215,0.00000629
 ,0.00002001,0.00003013,0.00002482,-0.00008784,0.00005750,0.00006955,0.
 00013364,-0.00001351,-0.00001929,-0.00004581,-0.00003188,-0.00000224,0
 .00002447,0.00018539,0.00006123,0.00000172,-0.00003586,-0.00000727,-0.
 00003090,-0.00016374,-0.00007413,-0.00003081,-0.05926174,-0.07074116,0
 .08065533,-0.00178460,-0.00127175,0.00359929,0.06239583,0.06273849,-0.
 00025351,0.00005533,0.00040182,-0.00017064,-0.00006198,0.00001358,0.00
 014407,0.00003342,-0.00015341,0.00014603,-0.00000583,0.00000516,0.0000
 7460,0.00006063,-0.00002041,-0.00011937,-0.00010602,0.00017313,-0.0000
 1720,0.00017665,-0.00002795,-0.00002416,0.00000376,0.00002511,0.000376
 22,0.00027372,-0.00015039,-0.00014086,-0.00004568,-0.00025508,0.000206
 15,0.00001561,0.00022939,0.00009187,-0.00028141,-0.00024782,0.00002929
 ,0.00025264,-0.00007757,-0.00001372,0.00004702,-0.00004458,-0.00023084
 ,0.00008391,0.00001023,0.00001502,-0.00003124,0.00004880,0.00007796,-0
 .00010025,0.00008007,0.00009212,-0.00005603,0.00009035,-0.00006318,0.0
 0000823,-0.00007622,0.00000806,0.00006747,-0.00009737,0.00016063,-0.00
 040885,0.00008906,-0.00012215,0.00030661,-0.00011821,-0.00007195,0.000
 03507,-0.00004344,0.00043669,0.00079520,-0.00008332,-0.00069305,-0.000
 55510,0.00044419,-0.00006719,0.00021044,-0.00003846,0.00009442,0.00002
 891,-0.00042550,-0.00018430,-0.00017889,0.00008007,0.00025879,0.000058
 79,-0.00008687,-0.00020392,0.00005800,-0.00046776,-0.00091328,0.002634
 51,-0.00485443,-0.00033920,-0.00022782,0.00053006,0.00365623,0.0001359
 4,-0.00084888,0.00567434,-0.00320780,-0.00331157,-0.00045700,-0.000071
 61,0.00028973,-0.00031152,-0.00004341,-0.00052880,-0.00006326,0.000047
 97,-0.00007021,-0.00002121,-0.00000426,0.00010143,-0.00012030,-0.00026
 904,-0.00017381,0.00001758,0.00003909,0.00009175,0.00006213,0.00002340
 ,-0.00005645,-0.00034398,-0.00010785,-0.00000776,0.00004380,-0.0000003
 0,0.00005327,0.00030382,0.00013963,0.00005385,0.09728813,0.07897365,-0
 .15594137,0.00388555,0.00544225,0.00801444,-0.10819773,-0.08424452,0.1
 5738215\\-0.00000495,-0.00001499,0.00000476,-0.00000106,-0.00000423,0.
 00000280,0.00000254,0.00000907,0.00000266,0.00000397,-0.00000206,0.000
 00241,0.00001268,0.00000330,-0.00000199,-0.00000097,0.00000843,-0.0000
 1442,0.00000149,-0.00000283,-0.00001322,0.00000690,0.00000801,0.000006
 04,-0.00002853,-0.00001177,-0.00000604,0.00000299,-0.00000535,0.000000
 48,0.00000655,0.00000187,0.00000192,-0.00001307,0.00002567,0.00000129,
 -0.00001842,-0.00001661,0.00002049,-0.00000232,-0.00000033,0.00000460,
 0.00001476,-0.00002047,0.00000091,0.00000791,0.00000354,0.00000223,0.0
 0000467,-0.00001398,-0.00000571,0.00001100,0.00000927,-0.00000066,0.00
 000026,0.00000133,-0.00000101,-0.00000551,0.00000242,0.00000320,-0.000
 00021,0.00000411,0.00000112,-0.00000184,-0.00000042,0.00000024,-0.0000
 0270,-0.00000123,0.00000052,0.00001196,0.00005070,-0.00003094,-0.00001
 625,-0.00001974,0.00002675,0.00000901,-0.00001083,0.00000558,-0.000008
 69,0.00004136,-0.00001509,-0.00000148,-0.00000349,0.00000012,0.0000086
 6,-0.00001028,0.00000272,-0.00001357,0.00000019,0.00002545,0.00001319,
 -0.00000603,-0.00001485,0.00000659,-0.00002023,0.00001080,0.00000137,0
 .00003393,-0.00001786,0.00000019,-0.00000480,0.00001332,-0.00001400,-0
 .00001000,-0.00001136,0.00003656,0.00000697,-0.00000993,-0.00000747,0.
 00000136,-0.00000546,-0.00000648,-0.00000218,0.00000667,-0.00000916,0.
 00000231,0.00000709,0.00000134,-0.00000313,0.00000166,-0.00000038,0.00
 000067,-0.00000180,-0.00000193,-0.00000939,-0.00000309,-0.00000480,-0.
 00000421,0.00000162,-0.00000068,0.00000325,-0.00000187,-0.00000554,-0.
 00000255,0.00000056,0.00000020,-0.00001522,-0.00000513,0.00000523,-0.0
 0000139,0.00000241\\\@
 The archive entry for this job was punched.


 TRUST EVERYONE, BUT CUT THE CARDS.
 Job cpu time:       2 days  2 hours 57 minutes 15.5 seconds.
 Elapsed time:       0 days  1 hours 43 minutes 28.0 seconds.
 File lengths (MBytes):  RWF=   5944 Int=      0 D2E=      0 Chk=     78 Scr=      2
 Normal termination of Gaussian 16 at Wed Dec 28 14:20:09 2022.
