       N       E                     dE             d eps       ncg     rms          rms(c)
DAV:   1     0.277992433248E+03    0.27799E+03   -0.62651E+03   192   0.466E+02
DAV:   2     0.385271932972E+02   -0.23947E+03   -0.23624E+03   256   0.103E+02
DAV:   3    -0.480645945173E+02   -0.86592E+02   -0.85609E+02   192   0.765E+01
DAV:   4    -0.589041193515E+02   -0.10840E+02   -0.10804E+02   160   0.294E+01
DAV:   5    -0.593351865857E+02   -0.43107E+00   -0.43040E+00   224   0.564E+00    0.333E+01
DAV:   6    -0.375773188754E+02    0.21758E+02   -0.67830E+01   160   0.320E+01    0.106E+01
DAV:   7    -0.441084683752E+02   -0.65311E+01   -0.27378E+01   192   0.241E+01    0.139E+01
DAV:   8    -0.481186142115E+02   -0.40101E+01   -0.49103E+00   192   0.747E+00    0.541E+00
DAV:   9    -0.506311161813E+02   -0.25125E+01   -0.19471E+00   224   0.494E+00    0.196E+00
DAV:  10    -0.516802124252E+02   -0.10491E+01   -0.19953E-01   176   0.201E+00    0.126E+00
DAV:  11    -0.525939211557E+02   -0.91371E+00   -0.20839E-01   128   0.181E+00    0.813E-01
DAV:  12    -0.529138114807E+02   -0.31989E+00   -0.31104E-02   208   0.778E-01    0.635E-01
DAV:  13    -0.535596740314E+02   -0.64586E+00   -0.89910E-02   144   0.108E+00    0.465E-01
DAV:  14    -0.543279114888E+02   -0.76824E+00   -0.10634E-01   192   0.994E-01    0.295E-01
DAV:  15    -0.546471157625E+02   -0.31920E+00   -0.96364E-03   192   0.317E-01    0.243E-01
DAV:  16    -0.549916409312E+02   -0.34453E+00   -0.87712E-03   176   0.342E-01    0.180E-01
DAV:  17    -0.551300531447E+02   -0.13841E+00   -0.13102E-03   176   0.169E-01    0.141E-01
DAV:  18    -0.551912498755E+02   -0.61197E-01   -0.35672E-04   192   0.981E-02    0.115E-01
DAV:  19    -0.552563559697E+02   -0.65106E-01   -0.65595E-04   160   0.101E-01    0.802E-02
DAV:  20    -0.552750288883E+02   -0.18673E-01   -0.87106E-05   224   0.520E-02    0.593E-02
DAV:  21    -0.552946259809E+02   -0.19597E-01   -0.26059E-04   160   0.613E-02    0.419E-02
DAV:  22    -0.552967355678E+02   -0.21096E-02   -0.30584E-04   192   0.624E-02    0.250E-02
DAV:  23    -0.552983259079E+02   -0.15903E-02   -0.58665E-05   176   0.421E-02    0.166E-02
DAV:  24    -0.553031501950E+02   -0.48243E-02   -0.42779E-05   160   0.295E-02    0.112E-02
DAV:  25    -0.553085193330E+02   -0.53691E-02   -0.21890E-05   160   0.204E-02    0.659E-03
DAV:  26    -0.553124966588E+02   -0.39773E-02   -0.99751E-06   144   0.135E-02    0.458E-03
DAV:  27    -0.553146218977E+02   -0.21252E-02   -0.55013E-06   160   0.101E-02    0.280E-03
DAV:  28    -0.553158901645E+02   -0.12683E-02   -0.30939E-06   128   0.615E-03    0.186E-03
DAV:  29    -0.553169483770E+02   -0.10582E-02   -0.24469E-06   128   0.504E-03    0.124E-03
DAV:  30    -0.553172581068E+02   -0.30973E-03   -0.70253E-07   144   0.307E-03    0.850E-04
DAV:  31    -0.553174361637E+02   -0.17806E-03   -0.33561E-07   160   0.202E-03    0.365E-04
DAV:  32    -0.553175043825E+02   -0.68219E-04   -0.14104E-07   160   0.137E-03    0.226E-04
DAV:  33    -0.553175475002E+02   -0.43118E-04   -0.95218E-08   160   0.108E-03    0.154E-04
DAV:  34    -0.553175609467E+02   -0.13446E-04   -0.28779E-08   160   0.619E-04    0.115E-04
DAV:  35    -0.553175670006E+02   -0.60539E-05   -0.12988E-08   160   0.397E-04
   1 F= -.55540018E+02 E0= -.55540018E+02  d E =-.555400E+02  mag=     0.0000
       N       E                     dE             d eps       ncg     rms          rms(c)
DAV:   1    -0.539903160185E+02    0.13272E+01   -0.87309E+01   128   0.473E+01    0.461E+00
DAV:   2    -0.540293829907E+02   -0.39067E-01   -0.23686E+00   192   0.772E+00    0.233E+00
DAV:   3    -0.539412572155E+02    0.88126E-01   -0.16325E-01   192   0.205E+00    0.118E+00
DAV:   4    -0.539127963362E+02    0.28461E-01   -0.92154E-02   192   0.141E+00    0.406E-01
DAV:   5    -0.539093777672E+02    0.34186E-02   -0.15281E-02   224   0.490E-01    0.231E-01
DAV:   6    -0.539092258447E+02    0.15192E-03   -0.18762E-03   192   0.190E-01    0.961E-02
DAV:   7    -0.539101396247E+02   -0.91378E-03   -0.62532E-04   208   0.120E-01    0.478E-02
DAV:   8    -0.539115193238E+02   -0.13797E-02   -0.29655E-04   224   0.694E-02    0.288E-02
DAV:   9    -0.539134054406E+02   -0.18861E-02   -0.29849E-04   192   0.603E-02    0.200E-02
DAV:  10    -0.539149919316E+02   -0.15865E-02   -0.19933E-04   224   0.425E-02    0.112E-02
DAV:  11    -0.539158364340E+02   -0.84450E-03   -0.53271E-05   192   0.223E-02    0.699E-03
DAV:  12    -0.539166928484E+02   -0.85641E-03   -0.61518E-05   224   0.213E-02    0.513E-03
DAV:  13    -0.539170109404E+02   -0.31809E-03   -0.12607E-05   192   0.104E-02    0.292E-03
DAV:  14    -0.539173192119E+02   -0.30827E-03   -0.10970E-05   160   0.879E-03    0.177E-03
DAV:  15    -0.539174380397E+02   -0.11883E-03   -0.20602E-06   160   0.421E-03    0.109E-03
DAV:  16    -0.539175222588E+02   -0.84219E-04   -0.19223E-06   128   0.370E-03    0.746E-04
DAV:  17    -0.539175702470E+02   -0.47988E-04   -0.78065E-07   160   0.238E-03    0.514E-04
DAV:  18    -0.539175969272E+02   -0.26680E-04   -0.40829E-07   160   0.180E-03    0.384E-04
DAV:  19    -0.539176128202E+02   -0.15893E-04   -0.22243E-07   160   0.124E-03    0.212E-04
DAV:  20    -0.539176237287E+02   -0.10909E-04   -0.11801E-07   160   0.927E-04    0.138E-04
DAV:  21    -0.539176295639E+02   -0.58352E-05   -0.49365E-08   160   0.628E-04
   2 F= -.54141052E+02 E0= -.54141052E+02  d E =0.139897E+01  mag=     0.0000
       N       E                     dE             d eps       ncg     rms          rms(c)
DAV:   1    -0.554630249326E+02   -0.15454E+01   -0.63460E+01   128   0.381E+01    0.348E+00
DAV:   2    -0.554151376398E+02    0.47887E-01   -0.13702E+00   192   0.573E+00    0.201E+00
DAV:   3    -0.553600965408E+02    0.55041E-01   -0.19149E-01   224   0.202E+00    0.114E+00
DAV:   4    -0.553433845106E+02    0.16712E-01   -0.97515E-02   224   0.140E+00    0.381E-01
DAV:   5    -0.553424837293E+02    0.90078E-03   -0.12824E-02   192   0.456E-01    0.202E-01
DAV:   6    -0.553432897730E+02   -0.80604E-03   -0.10356E-03   192   0.158E-01    0.103E-01
DAV:   7    -0.553445792315E+02   -0.12895E-02   -0.82398E-04   224   0.142E-01    0.485E-02
DAV:   8    -0.553455900599E+02   -0.10108E-02   -0.16082E-04   192   0.543E-02    0.329E-02
DAV:   9    -0.553472544858E+02   -0.16644E-02   -0.39012E-04   192   0.738E-02    0.140E-02
DAV:  10    -0.553480894851E+02   -0.83500E-03   -0.13031E-04   192   0.443E-02    0.916E-03
DAV:  11    -0.553488553304E+02   -0.76585E-03   -0.92980E-05   192   0.304E-02    0.629E-03
DAV:  12    -0.553492617955E+02   -0.40647E-03   -0.35125E-05   192   0.174E-02    0.379E-03
DAV:  13    -0.553494231313E+02   -0.16134E-03   -0.52993E-06   160   0.741E-03    0.236E-03
DAV:  14    -0.553495856102E+02   -0.16248E-03   -0.65053E-06   160   0.741E-03    0.141E-03
DAV:  15    -0.553496385229E+02   -0.52913E-04   -0.18927E-06   160   0.418E-03    0.995E-04
DAV:  16    -0.553496886804E+02   -0.50157E-04   -0.10646E-06   160   0.337E-03    0.672E-04
DAV:  17    -0.553497137859E+02   -0.25106E-04   -0.61964E-07   160   0.218E-03    0.349E-04
DAV:  18    -0.553497278185E+02   -0.14033E-04   -0.22060E-07   160   0.135E-03    0.256E-04
DAV:  19    -0.553497390904E+02   -0.11272E-04   -0.13840E-07   160   0.960E-04    0.174E-04
DAV:  20    -0.553497444727E+02   -0.53823E-05   -0.59528E-08   160   0.677E-04
   3 F= -.55572367E+02 E0= -.55572367E+02  d E =-.323495E-01  mag=     0.0000
       N       E                     dE             d eps       ncg     rms          rms(c)
DAV:   1    -0.553498915883E+02   -0.15250E-03   -0.83265E-03   192   0.466E-01    0.400E-02
DAV:   2    -0.553498883703E+02    0.32180E-05   -0.17822E-04   192   0.723E-02    0.213E-02
DAV:   3    -0.553498809833E+02    0.73870E-05   -0.11303E-05   160   0.200E-02    0.110E-02
DAV:   4    -0.553498764332E+02    0.45501E-05   -0.85311E-06   160   0.151E-02    0.446E-03
DAV:   5    -0.553498757112E+02    0.72199E-06   -0.14985E-06   160   0.680E-03
   4 F= -.55572488E+02 E0= -.55572488E+02  d E =-.324704E-01  mag=     0.0000
       N       E                     dE             d eps       ncg     rms          rms(c)
DAV:   1    -0.553449651639E+02    0.49113E-02   -0.10719E+01   128   0.152E+01    0.167E+00
DAV:   2    -0.553471060710E+02   -0.21409E-02   -0.13134E-01   192   0.182E+00    0.101E+00
DAV:   3    -0.553459250041E+02    0.11811E-02   -0.20626E-02   224   0.737E-01    0.579E-01
DAV:   4    -0.553452111823E+02    0.71382E-03   -0.11514E-02   224   0.442E-01    0.202E-01
DAV:   5    -0.553451261486E+02    0.85034E-04   -0.31987E-03   224   0.233E-01    0.110E-01
DAV:   6    -0.553452239491E+02   -0.97801E-04   -0.19402E-04   192   0.620E-02    0.443E-02
DAV:   7    -0.553454398010E+02   -0.21585E-03   -0.10377E-04   224   0.493E-02    0.151E-02
DAV:   8    -0.553455252520E+02   -0.85451E-04   -0.80801E-06   160   0.171E-02    0.698E-03
DAV:   9    -0.553456375942E+02   -0.11234E-03   -0.11605E-05   192   0.137E-02    0.397E-03
DAV:  10    -0.553457519239E+02   -0.11433E-03   -0.81727E-06   192   0.828E-03    0.239E-03
DAV:  11    -0.553458399009E+02   -0.87977E-04   -0.52489E-06   160   0.637E-03    0.195E-03
DAV:  12    -0.553459042977E+02   -0.64397E-04   -0.67589E-06   192   0.549E-03    0.983E-04
DAV:  13    -0.553459289027E+02   -0.24605E-04   -0.82641E-07   160   0.256E-03    0.742E-04
DAV:  14    -0.553459508978E+02   -0.21995E-04   -0.78429E-07   160   0.215E-03    0.346E-04
DAV:  15    -0.553459633827E+02   -0.12485E-04   -0.40152E-07   160   0.161E-03    0.326E-04
DAV:  16    -0.553459698306E+02   -0.64479E-05   -0.16846E-07   160   0.115E-03
   5 F= -.55568875E+02 E0= -.55568875E+02  d E =0.361308E-02  mag=     0.0000
       N       E                     dE             d eps       ncg     rms          rms(c)
DAV:   1    -0.553688070369E+02   -0.22844E-01   -0.28473E+00   128   0.788E+00    0.845E-01
DAV:   2    -0.553695087769E+02   -0.70174E-03   -0.34805E-02   224   0.918E-01    0.584E-01
DAV:   3    -0.553691651630E+02    0.34361E-03   -0.63578E-03   192   0.356E-01    0.126E-01
DAV:   4    -0.553688228538E+02    0.34231E-03   -0.27319E-03   224   0.232E-01    0.135E-01
DAV:   5    -0.553687978725E+02    0.24981E-04   -0.38011E-04   224   0.717E-02    0.306E-02
DAV:   6    -0.553688447875E+02   -0.46915E-04   -0.58779E-05   224   0.355E-02    0.351E-02
DAV:   7    -0.553689024837E+02   -0.57696E-04   -0.28444E-05   192   0.221E-02    0.554E-03
DAV:   8    -0.553689331887E+02   -0.30705E-04   -0.30850E-06   160   0.947E-03    0.306E-03
DAV:   9    -0.553689788077E+02   -0.45619E-04   -0.27584E-06   160   0.516E-03    0.154E-03
DAV:  10    -0.553690135776E+02   -0.34770E-04   -0.17025E-06   160   0.330E-03    0.124E-03
DAV:  11    -0.553690536628E+02   -0.40085E-04   -0.22985E-06   160   0.357E-03    0.618E-04
DAV:  12    -0.553690756906E+02   -0.22028E-04   -0.15304E-06   160   0.275E-03    0.380E-04
DAV:  13    -0.553690901723E+02   -0.14482E-04   -0.74960E-07   160   0.208E-03    0.264E-04
DAV:  14    -0.553690982942E+02   -0.81219E-05   -0.43771E-07   160   0.147E-03
   6 F= -.55591858E+02 E0= -.55591858E+02  d E =-.193702E-01  mag=     0.0000
       N       E                     dE             d eps       ncg     rms          rms(c)
DAV:   1    -0.553547762878E+02    0.14314E-01   -0.42193E+00   128   0.112E+01    0.686E-01
DAV:   2    -0.553575168797E+02   -0.27406E-02   -0.70203E-02   192   0.143E+00    0.449E-01
DAV:   3    -0.553559058928E+02    0.16110E-02   -0.53312E-03   224   0.391E-01    0.246E-01
DAV:   4    -0.553555631255E+02    0.34277E-03   -0.31656E-03   224   0.253E-01    0.927E-02
DAV:   5    -0.553555192013E+02    0.43924E-04   -0.11683E-03   224   0.128E-01    0.522E-02
DAV:   6    -0.553555524493E+02   -0.33248E-04   -0.55917E-05   192   0.313E-02    0.213E-02
DAV:   7    -0.553556660798E+02   -0.11363E-03   -0.31756E-05   192   0.278E-02    0.792E-03
DAV:   8    -0.553557468598E+02   -0.80780E-04   -0.43789E-06   160   0.100E-02    0.693E-03
DAV:   9    -0.553558964355E+02   -0.14958E-03   -0.12443E-05   192   0.977E-03    0.223E-03
DAV:  10    -0.553559696740E+02   -0.73238E-04   -0.26013E-06   160   0.488E-03    0.220E-03
DAV:  11    -0.553560928202E+02   -0.12315E-03   -0.10737E-05   192   0.744E-03    0.105E-03
DAV:  12    -0.553561272296E+02   -0.34409E-04   -0.14456E-06   160   0.356E-03    0.699E-04
DAV:  13    -0.553561567244E+02   -0.29495E-04   -0.11229E-06   128   0.261E-03    0.417E-04
DAV:  14    -0.553561742666E+02   -0.17542E-04   -0.58378E-07   160   0.200E-03    0.235E-04
DAV:  15    -0.553561833493E+02   -0.90827E-05   -0.30450E-07   160   0.145E-03
   7 F= -.55578751E+02 E0= -.55578751E+02  d E =0.131077E-01  mag=     0.0000
       N       E                     dE             d eps       ncg     rms          rms(c)
DAV:   1    -0.553728323827E+02   -0.16658E-01   -0.18884E+00   128   0.747E+00    0.449E-01
DAV:   2    -0.553737405247E+02   -0.90814E-03   -0.30099E-02   192   0.942E-01    0.309E-01
DAV:   3    -0.553730239702E+02    0.71655E-03   -0.19717E-03   192   0.249E-01    0.150E-01
DAV:   4    -0.553728878189E+02    0.13615E-03   -0.85214E-04   224   0.148E-01    0.464E-02
DAV:   5    -0.553729121171E+02   -0.24298E-04   -0.30768E-04   224   0.695E-02    0.333E-02
DAV:   6    -0.553729412817E+02   -0.29165E-04   -0.24919E-05   192   0.201E-02    0.121E-02
DAV:   7    -0.553730061646E+02   -0.64883E-04   -0.92760E-06   160   0.168E-02    0.616E-03
DAV:   8    -0.553730576524E+02   -0.51488E-04   -0.40137E-06   160   0.810E-03    0.419E-03
DAV:   9    -0.553731253396E+02   -0.67687E-04   -0.44107E-06   160   0.677E-03    0.148E-03
DAV:  10    -0.553731696529E+02   -0.44313E-04   -0.31461E-06   160   0.499E-03    0.122E-03
DAV:  11    -0.553732206980E+02   -0.51045E-04   -0.47885E-06   160   0.598E-03    0.544E-04
DAV:  12    -0.553732419070E+02   -0.21209E-04   -0.18182E-06   160   0.382E-03    0.434E-04
DAV:  13    -0.553732501987E+02   -0.82917E-05   -0.69060E-07   160   0.222E-03
   8 F= -.55595948E+02 E0= -.55595948E+02  d E =-.408993E-02  mag=     0.0000
       N       E                     dE             d eps       ncg     rms          rms(c)
DAV:   1    -0.553798057671E+02   -0.65639E-02   -0.20264E+00   128   0.744E+00    0.540E-01
DAV:   2    -0.553807456230E+02   -0.93986E-03   -0.25626E-02   192   0.839E-01    0.278E-01
DAV:   3    -0.553806386492E+02    0.10697E-03   -0.36744E-03   224   0.309E-01    0.242E-01
DAV:   4    -0.553805417541E+02    0.96895E-04   -0.17536E-03   224   0.174E-01    0.434E-02
DAV:   5    -0.553805188602E+02    0.22894E-04   -0.30936E-04   224   0.913E-02    0.506E-02
DAV:   6    -0.553805279028E+02   -0.90426E-05   -0.22589E-05   192   0.227E-02
   9 F= -.55602837E+02 E0= -.55602837E+02  d E =-.688916E-02  mag=     0.0000
       N       E                     dE             d eps       ncg     rms          rms(c)
DAV:   1    -0.553805455068E+02   -0.26647E-04   -0.10850E-04   192   0.528E-02    0.471E-03
DAV:   2    -0.553805580763E+02   -0.12569E-04   -0.22459E-06   160   0.780E-03    0.254E-03
DAV:   3    -0.553805725832E+02   -0.14507E-04   -0.10700E-06   160   0.436E-03    0.269E-03
DAV:   4    -0.553805856605E+02   -0.13077E-04   -0.55360E-07   160   0.251E-03    0.102E-03
DAV:   5    -0.553805970263E+02   -0.11366E-04   -0.39173E-07   160   0.192E-03    0.680E-04
DAV:   6    -0.553806112179E+02   -0.14192E-04   -0.52514E-07   160   0.207E-03    0.504E-04
DAV:   7    -0.553806271599E+02   -0.15942E-04   -0.82873E-07   160   0.251E-03    0.482E-04
DAV:   8    -0.553806363576E+02   -0.91977E-05   -0.47232E-07   160   0.174E-03
  10 F= -.55602949E+02 E0= -.55602949E+02  d E =-.700041E-02  mag=     0.0000
       N       E                     dE             d eps       ncg     rms          rms(c)
DAV:   1    -0.553820274003E+02   -0.14002E-02   -0.20124E-01   128   0.225E+00    0.130E-01
DAV:   2    -0.553819775481E+02    0.49852E-04   -0.29618E-03   192   0.298E-01    0.785E-02
DAV:   3    -0.553819588231E+02    0.18725E-04   -0.16526E-04   192   0.842E-02    0.441E-02
DAV:   4    -0.553819478291E+02    0.10994E-04   -0.70145E-05   192   0.448E-02    0.112E-02
DAV:   5    -0.553819449625E+02    0.28666E-05   -0.11869E-05   160   0.229E-02
  11 F= -.55604243E+02 E0= -.55604243E+02  d E =-.129477E-02  mag=     0.0000
       N       E                     dE             d eps       ncg     rms          rms(c)
DAV:   1    -0.553819961509E+02   -0.48322E-04   -0.11901E-02   128   0.558E-01    0.316E-02
DAV:   2    -0.553819894338E+02    0.67172E-05   -0.17828E-04   192   0.717E-02    0.197E-02
DAV:   3    -0.553819900863E+02   -0.65255E-06   -0.92803E-06   160   0.202E-02    0.116E-02
DAV:   4    -0.553819937022E+02   -0.36159E-05   -0.60616E-06   160   0.132E-02    0.364E-03
DAV:   5    -0.553819968937E+02   -0.31915E-05   -0.11139E-06   160   0.640E-03
  12 F= -.55604292E+02 E0= -.55604292E+02  d E =-.134327E-02  mag=     0.0000
       N       E                     dE             d eps       ncg     rms          rms(c)
DAV:   1    -0.553824950121E+02   -0.50131E-03   -0.10770E-01   128   0.179E+00    0.732E-02
DAV:   2    -0.553825981001E+02   -0.10309E-03   -0.16508E-03   192   0.215E-01    0.472E-02
DAV:   3    -0.553825936327E+02    0.44674E-05   -0.62245E-05   192   0.436E-02    0.226E-02
DAV:   4    -0.553825999754E+02   -0.63427E-05   -0.20518E-05   192   0.239E-02    0.971E-03
DAV:   5    -0.553826018328E+02   -0.18574E-05   -0.44144E-06   160   0.932E-03
  13 F= -.55604921E+02 E0= -.55604921E+02  d E =-.629445E-03  mag=     0.0000
       N       E                     dE             d eps       ncg     rms          rms(c)
DAV:   1    -0.553826045189E+02   -0.45435E-05   -0.12623E-03   192   0.196E-01    0.799E-03
DAV:   2    -0.553826074170E+02   -0.28981E-05   -0.22502E-05   192   0.243E-02    0.519E-03
DAV:   3    -0.553826083254E+02   -0.90844E-06   -0.55953E-07   160   0.443E-03    0.276E-03
DAV:   4    -0.553826098374E+02   -0.15120E-05   -0.41167E-07   128   0.329E-03    0.151E-03
DAV:   5    -0.553826109393E+02   -0.11019E-05   -0.11898E-07   160   0.174E-03
  14 F= -.55604933E+02 E0= -.55604933E+02  d E =-.641194E-03  mag=     0.0000
       N       E                     dE             d eps       ncg     rms          rms(c)
DAV:   1    -0.553828424461E+02   -0.23261E-03   -0.15569E-02   128   0.694E-01    0.275E-02
DAV:   2    -0.553828617550E+02   -0.19309E-04   -0.23825E-04   192   0.828E-02    0.224E-02
DAV:   3    -0.553828609985E+02    0.75642E-06   -0.27086E-06   160   0.127E-02    0.144E-02
DAV:   4    -0.553828641982E+02   -0.31996E-05   -0.49995E-06   160   0.133E-02    0.314E-03
DAV:   5    -0.553828645018E+02   -0.30363E-06   -0.14920E-06   160   0.644E-03
  15 F= -.55605221E+02 E0= -.55605221E+02  d E =-.287895E-03  mag=     0.0000
       N       E                     dE             d eps       ncg     rms          rms(c)
DAV:   1    -0.553831652648E+02   -0.30107E-03   -0.14022E-01   128   0.209E+00    0.824E-02
DAV:   2    -0.553833178833E+02   -0.15262E-03   -0.21307E-03   160   0.248E-01    0.667E-02
DAV:   3    -0.553833027841E+02    0.15099E-04   -0.28436E-05   192   0.387E-02    0.427E-02
DAV:   4    -0.553833136293E+02   -0.10845E-04   -0.41686E-05   192   0.370E-02    0.953E-03
DAV:   5    -0.553833135896E+02    0.39668E-07   -0.12550E-05   160   0.180E-02
  16 F= -.55605773E+02 E0= -.55605773E+02  d E =-.839911E-03  mag=     0.0000
       N       E                     dE             d eps       ncg     rms          rms(c)
DAV:   1    -0.553826068758E+02    0.70675E-03   -0.56156E-01   128   0.418E+00    0.163E-01
DAV:   2    -0.553832047522E+02   -0.59788E-03   -0.85077E-03   192   0.492E-01    0.134E-01
DAV:   3    -0.553831411842E+02    0.63568E-04   -0.10778E-04   192   0.740E-02    0.859E-02
DAV:   4    -0.553831934747E+02   -0.52290E-04   -0.16405E-04   192   0.729E-02    0.187E-02
DAV:   5    -0.553831946722E+02   -0.11975E-05   -0.52502E-05   192   0.345E-02
  17 F= -.55605860E+02 E0= -.55605860E+02  d E =-.926536E-03  mag=     0.0000
       N       E                     dE             d eps       ncg     rms          rms(c)
DAV:   1    -0.553832860299E+02   -0.92555E-04   -0.11073E-01   128   0.184E+00    0.715E-02
DAV:   2    -0.553834086741E+02   -0.12264E-03   -0.16439E-03   192   0.217E-01    0.600E-02
DAV:   3    -0.553834014456E+02    0.72284E-05   -0.20803E-05   192   0.322E-02    0.375E-02
DAV:   4    -0.553834235799E+02   -0.22134E-04   -0.31600E-05   192   0.334E-02    0.572E-03
DAV:   5    -0.553834254150E+02   -0.18351E-05   -0.59313E-06   160   0.141E-02
  18 F= -.55605999E+02 E0= -.55605999E+02  d E =-.106598E-02  mag=     0.0000
       N       E                     dE             d eps       ncg     rms          rms(c)
DAV:   1    -0.553836237440E+02   -0.20016E-03   -0.37499E-02   128   0.105E+00    0.531E-02
DAV:   2    -0.553836610672E+02   -0.37323E-04   -0.68118E-04   192   0.139E-01    0.338E-02
DAV:   3    -0.553836510225E+02    0.10045E-04   -0.21684E-05   192   0.303E-02    0.215E-02
DAV:   4    -0.553836468170E+02    0.42055E-05   -0.31702E-05   192   0.313E-02    0.826E-03
DAV:   5    -0.553836456627E+02    0.11542E-05   -0.57019E-06   160   0.158E-02
  19 F= -.55606249E+02 E0= -.55606249E+02  d E =-.249987E-03  mag=     0.0000
       N       E                     dE             d eps       ncg     rms          rms(c)
DAV:   1    -0.553836522299E+02   -0.54129E-05   -0.32826E-03   192   0.315E-01    0.163E-02
DAV:   2    -0.553836548549E+02   -0.26250E-05   -0.65743E-05   192   0.426E-02    0.103E-02
DAV:   3    -0.553836538554E+02    0.99946E-06   -0.21199E-06   160   0.997E-03    0.682E-03
DAV:   4    -0.553836541323E+02   -0.27682E-06   -0.34547E-06   160   0.108E-02    0.266E-03
DAV:   5    -0.553836548174E+02   -0.68511E-06   -0.57116E-07   160   0.534E-03
  20 F= -.55606267E+02 E0= -.55606267E+02  d E =-.267884E-03  mag=     0.0000
       N       E                     dE             d eps       ncg     rms          rms(c)
DAV:   1    -0.553838123017E+02   -0.15817E-03   -0.43421E-02   128   0.110E+00    0.693E-02
DAV:   2    -0.553838634599E+02   -0.51158E-04   -0.72616E-04   192   0.140E-01    0.304E-02
DAV:   3    -0.553838591461E+02    0.43138E-05   -0.32882E-05   224   0.273E-02    0.270E-02
DAV:   4    -0.553838607965E+02   -0.16503E-05   -0.21588E-05   160   0.221E-02    0.534E-03
DAV:   5    -0.553838611567E+02   -0.36024E-06   -0.49243E-06   160   0.123E-02
  21 F= -.55606493E+02 E0= -.55606493E+02  d E =-.226035E-03  mag=     0.0000
       N       E                     dE             d eps       ncg     rms          rms(c)
DAV:   1    -0.553838714019E+02   -0.10605E-04   -0.80211E-03   128   0.475E-01    0.324E-02
DAV:   2    -0.553838809695E+02   -0.95676E-05   -0.14098E-04   192   0.611E-02    0.128E-02
DAV:   3    -0.553838798434E+02    0.11261E-05   -0.80192E-06   160   0.131E-02    0.141E-02
DAV:   4    -0.553838801693E+02   -0.32593E-06   -0.29519E-06   160   0.933E-03    0.249E-03
DAV:   5    -0.553838808191E+02   -0.64977E-06   -0.41226E-07   160   0.370E-03
  22 F= -.55606521E+02 E0= -.55606521E+02  d E =-.254133E-03  mag=     0.0000
       N       E                     dE             d eps       ncg     rms          rms(c)
DAV:   1    -0.553839717776E+02   -0.91608E-04   -0.11408E-02   128   0.586E-01    0.206E-02
DAV:   2    -0.553839887761E+02   -0.16998E-04   -0.20804E-04   192   0.738E-02    0.128E-02
DAV:   3    -0.553839876889E+02    0.10872E-05   -0.27791E-06   160   0.105E-02    0.820E-03
DAV:   4    -0.553839882448E+02   -0.55592E-06   -0.28793E-06   160   0.951E-03    0.290E-03
DAV:   5    -0.553839886470E+02   -0.40218E-06   -0.76059E-07   160   0.494E-03
  23 F= -.55606648E+02 E0= -.55606648E+02  d E =-.127169E-03  mag=     0.0000
       N       E                     dE             d eps       ncg     rms          rms(c)
DAV:   1    -0.553839579394E+02    0.30305E-04   -0.10266E-01   128   0.176E+00    0.613E-02
DAV:   2    -0.553841003719E+02   -0.14243E-03   -0.18553E-03   192   0.220E-01    0.388E-02
DAV:   3    -0.553840862651E+02    0.14107E-04   -0.26832E-05   192   0.307E-02    0.239E-02
DAV:   4    -0.553840843657E+02    0.18994E-05   -0.24896E-05   192   0.264E-02    0.877E-03
DAV:   5    -0.553840840402E+02    0.32552E-06   -0.62946E-06   160   0.127E-02
  24 F= -.55606802E+02 E0= -.55606802E+02  d E =-.280574E-03  mag=     0.0000
       N       E                     dE             d eps       ncg     rms          rms(c)
DAV:   1    -0.553841004446E+02   -0.16079E-04   -0.39618E-04   192   0.110E-01    0.438E-03
DAV:   2    -0.553841018108E+02   -0.13662E-05   -0.70541E-06   160   0.141E-02    0.306E-03
DAV:   3    -0.553841025659E+02   -0.75507E-06   -0.52709E-07   160   0.405E-03    0.158E-03
DAV:   4    -0.553841038905E+02   -0.13246E-05   -0.10901E-07   160   0.178E-03    0.854E-04
DAV:   5    -0.553841057785E+02   -0.18881E-05   -0.72294E-08   160   0.114E-03
  25 F= -.55606827E+02 E0= -.55606827E+02  d E =-.251871E-04  mag=     0.0000
       N       E                     dE             d eps       ncg     rms          rms(c)
DAV:   1    -0.553841497066E+02   -0.45816E-04   -0.34978E-03   128   0.325E-01    0.964E-03
DAV:   2    -0.553841555375E+02   -0.58308E-05   -0.59300E-05   192   0.401E-02    0.784E-03
DAV:   3    -0.553841556529E+02   -0.11545E-06   -0.50601E-07   160   0.460E-03    0.486E-03
DAV:   4    -0.553841569676E+02   -0.13147E-05   -0.56332E-07   160   0.495E-03    0.186E-03
DAV:   5    -0.553841576806E+02   -0.71298E-06   -0.25277E-07   160   0.270E-03
  26 F= -.55606889E+02 E0= -.55606889E+02  d E =-.874339E-04  mag=     0.0000
       N       E                     dE             d eps       ncg     rms          rms(c)
DAV:   1    -0.553842159816E+02   -0.59014E-04   -0.13991E-02   128   0.651E-01    0.194E-02
DAV:   2    -0.553842363806E+02   -0.20399E-04   -0.23575E-04   192   0.800E-02    0.157E-02
DAV:   3    -0.553842352444E+02    0.11363E-05   -0.19517E-06   160   0.915E-03    0.972E-03
DAV:   4    -0.553842363846E+02   -0.11403E-05   -0.22031E-06   160   0.983E-03    0.349E-03
DAV:   5    -0.553842367942E+02   -0.40962E-06   -0.93262E-07   160   0.522E-03
  27 F= -.55606989E+02 E0= -.55606989E+02  d E =-.187230E-03  mag=     0.0000
       N       E                     dE             d eps       ncg     rms          rms(c)
DAV:   1    -0.553842684179E+02   -0.32033E-04   -0.55973E-02   128   0.130E+00    0.388E-02
DAV:   2    -0.553843483536E+02   -0.79936E-04   -0.94190E-04   192   0.160E-01    0.313E-02
DAV:   3    -0.553843428958E+02    0.54578E-05   -0.78582E-06   160   0.183E-02    0.194E-02
DAV:   4    -0.553843457618E+02   -0.28660E-05   -0.87667E-06   160   0.196E-02    0.717E-03
DAV:   5    -0.553843464073E+02   -0.64558E-06   -0.37797E-06   160   0.105E-02
  28 F= -.55607140E+02 E0= -.55607140E+02  d E =-.338183E-03  mag=     0.0000
       N       E                     dE             d eps       ncg     rms          rms(c)
DAV:   1    -0.553841441769E+02    0.20158E-03   -0.22398E-01   128   0.261E+00    0.775E-02
DAV:   2    -0.553844612500E+02   -0.31707E-03   -0.37610E-03   192   0.321E-01    0.629E-02
DAV:   3    -0.553844400063E+02    0.21244E-04   -0.36380E-05   192   0.364E-02    0.387E-02
DAV:   4    -0.553844524109E+02   -0.12405E-04   -0.32482E-05   192   0.366E-02    0.158E-02
DAV:   5    -0.553844544310E+02   -0.20201E-05   -0.13507E-05   160   0.192E-02
  29 F= -.55607330E+02 E0= -.55607330E+02  d E =-.528780E-03  mag=     0.0000
       N       E                     dE             d eps       ncg     rms          rms(c)
DAV:   1    -0.553829543366E+02    0.14981E-02   -0.89686E-01   128   0.522E+00    0.155E-01
DAV:   2    -0.553842209998E+02   -0.12667E-02   -0.15039E-02   192   0.644E-01    0.126E-01
DAV:   3    -0.553841434369E+02    0.77563E-04   -0.15107E-04   224   0.728E-02    0.784E-02
DAV:   4    -0.553841910643E+02   -0.47627E-04   -0.14077E-04   160   0.761E-02    0.318E-02
DAV:   5    -0.553841994951E+02   -0.84308E-05   -0.68261E-05   192   0.405E-02
  30 F= -.55607240E+02 E0= -.55607240E+02  d E =-.438562E-03  mag=     0.0000
       N       E                     dE             d eps       ncg     rms          rms(c)
DAV:   1    -0.553845711827E+02   -0.38012E-03   -0.54702E-02   128   0.128E+00    0.586E-02
DAV:   2    -0.553846342479E+02   -0.63065E-04   -0.11194E-03   160   0.175E-01    0.474E-02
DAV:   3    -0.553846221529E+02    0.12095E-04   -0.22265E-05   192   0.293E-02    0.291E-02
DAV:   4    -0.553846189246E+02    0.32283E-05   -0.32519E-05   160   0.314E-02    0.679E-03
DAV:   5    -0.553846205837E+02   -0.16591E-05   -0.36691E-06   160   0.122E-02
  31 F= -.55607685E+02 E0= -.55607685E+02  d E =-.444931E-03  mag=    -0.0000
       N       E                     dE             d eps       ncg     rms          rms(c)
DAV:   1    -0.553846398689E+02   -0.20944E-04   -0.68510E-03   128   0.454E-01    0.210E-02
DAV:   2    -0.553846470437E+02   -0.71748E-05   -0.14191E-04   192   0.625E-02    0.174E-02
DAV:   3    -0.553846461429E+02    0.90080E-06   -0.25935E-06   160   0.109E-02    0.111E-02
DAV:   4    -0.553846486102E+02   -0.24673E-05   -0.58892E-06   128   0.138E-02    0.277E-03
DAV:   5    -0.553846508368E+02   -0.22266E-05   -0.82776E-07   160   0.559E-03
  32 F= -.55607724E+02 E0= -.55607724E+02  d E =-.483594E-03  mag=     0.0000
       N       E                     dE             d eps       ncg     rms          rms(c)
DAV:   1    -0.553848313732E+02   -0.18276E-03   -0.83551E-03   128   0.477E-01    0.280E-02
DAV:   2    -0.553848394281E+02   -0.80549E-05   -0.13975E-04   192   0.633E-02    0.142E-02
DAV:   3    -0.553848413178E+02   -0.18897E-05   -0.72059E-06   160   0.147E-02    0.117E-02
DAV:   4    -0.553848448922E+02   -0.35744E-05   -0.32715E-06   160   0.940E-03    0.235E-03
DAV:   5    -0.553848466661E+02   -0.17739E-05   -0.63769E-07   160   0.494E-03
  33 F= -.55607923E+02 E0= -.55607923E+02  d E =-.199385E-03  mag=     0.0000
       N       E                     dE             d eps       ncg     rms          rms(c)
DAV:   1    -0.553851029864E+02   -0.25809E-03   -0.75208E-02   128   0.143E+00    0.862E-02
DAV:   2    -0.553851594797E+02   -0.56493E-04   -0.12537E-03   192   0.188E-01    0.420E-02
DAV:   3    -0.553851531575E+02    0.63223E-05   -0.79144E-05   192   0.453E-02    0.351E-02
DAV:   4    -0.553851529996E+02    0.15783E-06   -0.36786E-05   192   0.269E-02    0.806E-03
DAV:   5    -0.553851522886E+02    0.71102E-06   -0.81890E-06   160   0.162E-02
  34 F= -.55608239E+02 E0= -.55608239E+02  d E =-.515579E-03  mag=    -0.0000
       N       E                     dE             d eps       ncg     rms          rms(c)
DAV:   1    -0.553851668428E+02   -0.13843E-04   -0.90459E-03   128   0.497E-01    0.319E-02
DAV:   2    -0.553851741587E+02   -0.73159E-05   -0.15908E-04   192   0.667E-02    0.140E-02
DAV:   3    -0.553851737967E+02    0.36203E-06   -0.12141E-05   160   0.171E-02    0.152E-02
DAV:   4    -0.553851746694E+02   -0.87269E-06   -0.30578E-06   160   0.951E-03    0.426E-03
DAV:   5    -0.553851761192E+02   -0.14498E-05   -0.57045E-07   160   0.491E-03
  35 F= -.55608267E+02 E0= -.55608267E+02  d E =-.543039E-03  mag=    -0.0000
       N       E                     dE             d eps       ncg     rms          rms(c)
DAV:   1    -0.553852340961E+02   -0.59427E-04   -0.15609E-02   128   0.709E-01    0.319E-02
DAV:   2    -0.553852580539E+02   -0.23958E-04   -0.34195E-04   192   0.983E-02    0.247E-02
DAV:   3    -0.553852543656E+02    0.36883E-05   -0.66783E-06   160   0.191E-02    0.145E-02
DAV:   4    -0.553852528200E+02    0.15456E-05   -0.14335E-05   160   0.218E-02    0.470E-03
DAV:   5    -0.553852530154E+02   -0.19532E-06   -0.19277E-06   160   0.833E-03
  36 F= -.55608355E+02 E0= -.55608355E+02  d E =-.880278E-04  mag=     0.0000
       N       E                     dE             d eps       ncg     rms          rms(c)
DAV:   1    -0.553852552395E+02   -0.24195E-05   -0.70692E-05   192   0.474E-02    0.247E-03
DAV:   2    -0.553852564435E+02   -0.12040E-05   -0.13188E-06   160   0.641E-03    0.176E-03
DAV:   3    -0.553852572588E+02   -0.81537E-06   -0.12701E-07   160   0.207E-03    0.101E-03
DAV:   4    -0.553852588598E+02   -0.16010E-05   -0.10032E-07   160   0.184E-03    0.336E-04
DAV:   5    -0.553852597261E+02   -0.86628E-06   -0.24129E-08   160   0.785E-04
  37 F= -.55608361E+02 E0= -.55608361E+02  d E =-.939857E-04  mag=     0.0000
       N       E                     dE             d eps       ncg     rms          rms(c)
DAV:   1    -0.553853102177E+02   -0.51358E-04   -0.64378E-03   128   0.450E-01    0.197E-02
DAV:   2    -0.553853190084E+02   -0.87907E-05   -0.10303E-04   192   0.551E-02    0.137E-02
DAV:   3    -0.553853192168E+02   -0.20835E-06   -0.17730E-06   160   0.947E-03    0.857E-03
DAV:   4    -0.553853205455E+02   -0.13288E-05   -0.23254E-06   160   0.854E-03    0.353E-03
DAV:   5    -0.553853205889E+02   -0.43361E-07   -0.89846E-07   160   0.466E-03
  38 F= -.55608438E+02 E0= -.55608438E+02  d E =-.772294E-04  mag=     0.0000
       N       E                     dE             d eps       ncg     rms          rms(c)
DAV:   1    -0.553853006883E+02    0.19857E-04   -0.57983E-02   128   0.135E+00    0.595E-02
DAV:   2    -0.553853725992E+02   -0.71911E-04   -0.92416E-04   192   0.165E-01    0.410E-02
DAV:   3    -0.553853680721E+02    0.45271E-05   -0.16698E-05   160   0.288E-02    0.260E-02
DAV:   4    -0.553853708936E+02   -0.28214E-05   -0.21839E-05   160   0.259E-02    0.113E-02
DAV:   5    -0.553853705801E+02    0.31344E-06   -0.84269E-06   160   0.142E-02
  39 F= -.55608537E+02 E0= -.55608537E+02  d E =-.176278E-03  mag=     0.0000
       N       E                     dE             d eps       ncg     rms          rms(c)
DAV:   1    -0.553854227298E+02   -0.51836E-04   -0.12165E-02   128   0.595E-01    0.282E-02
DAV:   2    -0.553854376737E+02   -0.14944E-04   -0.20344E-04   192   0.742E-02    0.148E-02
DAV:   3    -0.553854367041E+02    0.96956E-06   -0.53563E-06   128   0.136E-02    0.110E-02
DAV:   4    -0.553854371879E+02   -0.48384E-06   -0.31668E-06   160   0.955E-03    0.224E-03
DAV:   5    -0.553854375255E+02   -0.33753E-06   -0.85230E-07   160   0.477E-03
  40 F= -.55608605E+02 E0= -.55608605E+02  d E =-.684455E-04  mag=     0.0000
