       N       E                     dE             d eps       ncg     rms          rms(c)
DAV:   1     0.185633469899E+05    0.18563E+05   -0.76764E+05  5968   0.107E+03
DAV:   2     0.395397642610E+03   -0.18168E+05   -0.17408E+05  7552   0.281E+02
DAV:   3    -0.296733072309E+04   -0.33627E+04   -0.33433E+04  6704   0.126E+02
DAV:   4    -0.306652778771E+04   -0.99197E+02   -0.98757E+02  6752   0.249E+01
DAV:   5    -0.306879792838E+04   -0.22701E+01   -0.22664E+01  7232   0.343E+00    0.190E+02
DAV:   6    -0.148182957006E+04    0.15870E+04   -0.30700E+03  6336   0.451E+01    0.884E+01
DAV:   7    -0.161569634229E+04   -0.13387E+03   -0.25295E+02  6832   0.127E+01    0.559E+01
DAV:   8    -0.165194960607E+04   -0.36253E+02   -0.66640E+01  6976   0.550E+00    0.446E+01
DAV:   9    -0.178792078649E+04   -0.13597E+03   -0.36899E+01  6896   0.555E+00    0.358E+01
DAV:  10    -0.200625771620E+04   -0.21834E+03   -0.52823E+01  6704   0.569E+00    0.296E+01
DAV:  11    -0.223669683815E+04   -0.23044E+03   -0.86826E+01  6576   0.686E+00    0.245E+01
DAV:  12    -0.259494643530E+04   -0.35825E+03   -0.25308E+02  6432   0.111E+01    0.167E+01
DAV:  13    -0.280630205990E+04   -0.21136E+03   -0.19097E+02  6640   0.826E+00    0.113E+01
DAV:  14    -0.285562316456E+04   -0.49321E+02   -0.26895E+01  6704   0.339E+00    0.911E+00
DAV:  15    -0.287568828702E+04   -0.20065E+02   -0.61021E+00  6672   0.197E+00    0.730E+00
DAV:  16    -0.288594357394E+04   -0.10255E+02   -0.25654E+00  6528   0.135E+00    0.591E+00
DAV:  17    -0.289237911433E+04   -0.64355E+01   -0.16457E+00  6560   0.103E+00    0.472E+00
DAV:  18    -0.289715329398E+04   -0.47742E+01   -0.13356E+00  6464   0.871E-01    0.345E+00
DAV:  19    -0.290165100590E+04   -0.44977E+01   -0.10444E+00  6512   0.701E-01    0.209E+00
DAV:  20    -0.290217027305E+04   -0.51927E+00   -0.38331E-01  6320   0.495E-01    0.123E+00
DAV:  21    -0.290344774390E+04   -0.12775E+01   -0.77859E-02  6544   0.361E-01    0.796E-01
DAV:  22    -0.290613432814E+04   -0.26866E+01   -0.76492E-02  6432   0.336E-01    0.444E-01
DAV:  23    -0.290752598234E+04   -0.13917E+01   -0.30676E-02  6640   0.207E-01    0.318E-01
DAV:  24    -0.290823051259E+04   -0.70453E+00   -0.15283E-02  6704   0.143E-01    0.188E-01
DAV:  25    -0.290872196071E+04   -0.49145E+00   -0.80370E-03  6752   0.103E-01    0.101E-01
DAV:  26    -0.290885703845E+04   -0.13508E+00   -0.36405E-03  6768   0.751E-02    0.564E-02
DAV:  27    -0.290889383983E+04   -0.36801E-01   -0.16220E-03  6704   0.507E-02    0.339E-02
DAV:  28    -0.290890389097E+04   -0.10051E-01   -0.48224E-04  6720   0.274E-02    0.220E-02
DAV:  29    -0.290890923728E+04   -0.53463E-02   -0.25447E-04  6240   0.200E-02    0.113E-02
DAV:  30    -0.290891078927E+04   -0.15520E-02   -0.67195E-05  6016   0.100E-02    0.899E-03
DAV:  31    -0.290891209660E+04   -0.13073E-02   -0.19908E-05  5504   0.531E-03    0.597E-03
DAV:  32    -0.290891352736E+04   -0.14308E-02   -0.22823E-05  5696   0.494E-03    0.450E-03
DAV:  33    -0.290891406617E+04   -0.53881E-03   -0.10385E-05  5024   0.390E-03    0.322E-03
DAV:  34    -0.290891459213E+04   -0.52596E-03   -0.89242E-06  4864   0.317E-03    0.170E-03
DAV:  35    -0.290891474441E+04   -0.15228E-03   -0.37193E-06  4832   0.195E-03    0.167E-03
DAV:  36    -0.290891482453E+04   -0.80116E-04   -0.13871E-06  4768   0.118E-03    0.108E-03
DAV:  37    -0.290891486201E+04   -0.37487E-04   -0.72495E-07  4832   0.849E-04    0.720E-04
DAV:  38    -0.290891488152E+04   -0.19507E-04   -0.34943E-07  4720   0.581E-04    0.384E-04
DAV:  39    -0.290891489532E+04   -0.13794E-04   -0.16356E-07  4768   0.394E-04    0.324E-04
DAV:  40    -0.290891489983E+04   -0.45117E-05   -0.54472E-08  4784   0.274E-04
   1 F= -.29440092E+04 E0= -.29440092E+04  d E =-.294401E+04  mag=    -0.0000
       N       E                     dE             d eps       ncg     rms          rms(c)
DAV:   1    -0.290884544773E+04    0.69448E-01   -0.13135E+01  5696   0.307E+00    0.148E+00
DAV:   2    -0.290887336758E+04   -0.27920E-01   -0.41630E-01  6752   0.516E-01    0.725E-01
DAV:   3    -0.290886714207E+04    0.62255E-02   -0.15163E-02  6848   0.142E-01    0.418E-01
DAV:   4    -0.290886489864E+04    0.22434E-02   -0.64982E-03  6784   0.101E-01    0.210E-01
DAV:   5    -0.290886457574E+04    0.32290E-03   -0.27534E-03  6784   0.660E-02    0.975E-02
DAV:   6    -0.290886450799E+04    0.67757E-04   -0.77978E-04  6848   0.355E-02    0.785E-02
DAV:   7    -0.290886447532E+04    0.32668E-04   -0.71200E-05  6448   0.113E-02    0.574E-02
DAV:   8    -0.290886442921E+04    0.46103E-04   -0.40962E-05  6048   0.222E-02    0.167E-02
DAV:   9    -0.290886443484E+04   -0.56209E-05   -0.46763E-05  6464   0.158E-02
   2 F= -.29439594E+04 E0= -.29439594E+04  d E =0.497197E-01  mag=    -0.0000
       N       E                     dE             d eps       ncg     rms          rms(c)
DAV:   1    -0.290892035299E+04   -0.55924E-01   -0.59864E+00  5696   0.208E+00    0.995E-01
DAV:   2    -0.290893321421E+04   -0.12861E-01   -0.19013E-01  6752   0.352E-01    0.488E-01
DAV:   3    -0.290893049178E+04    0.27224E-02   -0.69465E-03  6816   0.947E-02    0.279E-01
DAV:   4    -0.290892959629E+04    0.89549E-03   -0.29993E-03  6688   0.651E-02    0.147E-01
DAV:   5    -0.290892946876E+04    0.12753E-03   -0.11309E-03  6864   0.418E-02    0.635E-02
DAV:   6    -0.290892943854E+04    0.30215E-04   -0.33514E-04  6704   0.229E-02    0.504E-02
DAV:   7    -0.290892942290E+04    0.15647E-04   -0.34941E-05  6128   0.756E-03    0.345E-02
DAV:   8    -0.290892939781E+04    0.25083E-04   -0.16001E-05  5200   0.132E-02    0.981E-03
DAV:   9    -0.290892939437E+04    0.34465E-05   -0.18580E-05  5632   0.907E-03
   3 F= -.29440239E+04 E0= -.29440239E+04  d E =-.147341E-01  mag=    -0.0000
       N       E                     dE             d eps       ncg     rms          rms(c)
DAV:   1    -0.290893346996E+04   -0.40721E-02   -0.43015E+00  5568   0.176E+00    0.806E-01
DAV:   2    -0.290894146702E+04   -0.79971E-02   -0.10945E-01  6784   0.265E-01    0.454E-01
DAV:   3    -0.290894054597E+04    0.92105E-03   -0.32694E-03  6720   0.559E-02    0.277E-01
DAV:   4    -0.290894021057E+04    0.33539E-03   -0.15520E-03  6656   0.424E-02    0.179E-01
DAV:   5    -0.290894011682E+04    0.93759E-04   -0.77847E-04  6720   0.284E-02    0.566E-02
DAV:   6    -0.290894009953E+04    0.17290E-04   -0.17961E-04  6752   0.156E-02    0.496E-02
DAV:   7    -0.290894009718E+04    0.23438E-05   -0.34251E-05  6096   0.571E-03
   4 F= -.29440351E+04 E0= -.29440351E+04  d E =-.112338E-01  mag=    -0.0000
       N       E                     dE             d eps       ncg     rms          rms(c)
DAV:   1    -0.290894099850E+04   -0.89898E-03   -0.23536E-01  5568   0.412E-01    0.177E-01
DAV:   2    -0.290894142026E+04   -0.42176E-03   -0.57951E-03  6688   0.612E-02    0.106E-01
DAV:   3    -0.290894137310E+04    0.47163E-04   -0.18098E-04  6768   0.127E-02    0.647E-02
DAV:   4    -0.290894136056E+04    0.12536E-04   -0.75952E-05  6656   0.894E-03    0.423E-02
DAV:   5    -0.290894136120E+04   -0.64087E-06   -0.39301E-05  5664   0.560E-03
   5 F= -.29440363E+04 E0= -.29440363E+04  d E =-.123737E-01  mag=    -0.0000
       N       E                     dE             d eps       ncg     rms          rms(c)
DAV:   1    -0.290894665248E+04   -0.52919E-02   -0.37479E+00  5568   0.177E+00    0.570E-01
DAV:   2    -0.290895355389E+04   -0.69014E-02   -0.88704E-02  6656   0.255E-01    0.290E-01
DAV:   3    -0.290895279391E+04    0.75998E-03   -0.20442E-03  6752   0.483E-02    0.178E-01
DAV:   4    -0.290895249367E+04    0.30024E-03   -0.11445E-03  6592   0.425E-02    0.917E-02
DAV:   5    -0.290895248334E+04    0.10329E-04   -0.47060E-04  6720   0.254E-02    0.386E-02
DAV:   6    -0.290895247415E+04    0.91868E-05   -0.12763E-04  6704   0.129E-02    0.289E-02
DAV:   7    -0.290895247235E+04    0.18053E-05   -0.14375E-05  5344   0.430E-03
   6 F= -.29440480E+04 E0= -.29440480E+04  d E =-.117798E-01  mag=    -0.0000
       N       E                     dE             d eps       ncg     rms          rms(c)
DAV:   1    -0.290895241063E+04    0.63521E-04   -0.78759E-02  5632   0.257E-01    0.859E-02
DAV:   2    -0.290895256032E+04   -0.14969E-03   -0.19411E-03  6848   0.381E-02    0.434E-02
DAV:   3    -0.290895254484E+04    0.15482E-04   -0.48758E-05  6592   0.798E-03    0.263E-02
DAV:   4    -0.290895254063E+04    0.42052E-05   -0.22317E-05  5552   0.693E-03    0.148E-02
DAV:   5    -0.290895254337E+04   -0.27376E-05   -0.12683E-05  4912   0.542E-03
   7 F= -.29440482E+04 E0= -.29440482E+04  d E =-.119477E-01  mag=    -0.0000
       N       E                     dE             d eps       ncg     rms          rms(c)
DAV:   1    -0.290895931854E+04   -0.67779E-02   -0.92215E-01  5568   0.848E-01    0.244E-01
DAV:   2    -0.290896087885E+04   -0.15603E-02   -0.20060E-02  6592   0.118E-01    0.136E-01
DAV:   3    -0.290896074594E+04    0.13292E-03   -0.46763E-04  6752   0.217E-02    0.861E-02
DAV:   4    -0.290896069525E+04    0.50689E-04   -0.21514E-04  6560   0.176E-02    0.351E-02
DAV:   5    -0.290896070001E+04   -0.47665E-05   -0.65685E-05  6704   0.105E-02
   8 F= -.29440566E+04 E0= -.29440566E+04  d E =-.837524E-02  mag=    -0.0000
       N       E                     dE             d eps       ncg     rms          rms(c)
DAV:   1    -0.290896239024E+04   -0.16950E-02   -0.29617E+00  5536   0.152E+00    0.441E-01
DAV:   2    -0.290896740842E+04   -0.50182E-02   -0.64487E-02  6624   0.211E-01    0.240E-01
DAV:   3    -0.290896696923E+04    0.43919E-03   -0.14904E-03  6784   0.394E-02    0.153E-01
DAV:   4    -0.290896679127E+04    0.17796E-03   -0.71937E-04  6496   0.333E-02    0.587E-02
DAV:   5    -0.290896679928E+04   -0.80051E-05   -0.22596E-04  6720   0.201E-02    0.264E-02
DAV:   6    -0.290896680557E+04   -0.62952E-05   -0.76322E-05  6624   0.950E-03
   9 F= -.29440631E+04 E0= -.29440631E+04  d E =-.148738E-01  mag=    -0.0000
       N       E                     dE             d eps       ncg     rms          rms(c)
DAV:   1    -0.290897311290E+04   -0.63136E-02   -0.82131E-01  5568   0.791E-01    0.283E-01
DAV:   2    -0.290897480206E+04   -0.16892E-02   -0.20738E-02  6560   0.117E-01    0.139E-01
DAV:   3    -0.290897464379E+04    0.15828E-03   -0.42944E-04  6784   0.224E-02    0.869E-02
DAV:   4    -0.290897459483E+04    0.48960E-04   -0.24511E-04  6528   0.189E-02    0.375E-02
DAV:   5    -0.290897460247E+04   -0.76469E-05   -0.84671E-05  6656   0.107E-02
  10 F= -.29440709E+04 E0= -.29440709E+04  d E =-.784365E-02  mag=    -0.0000
       N       E                     dE             d eps       ncg     rms          rms(c)
DAV:   1    -0.290897582787E+04   -0.12330E-02   -0.14097E+00  5536   0.104E+00    0.374E-01
DAV:   2    -0.290897872500E+04   -0.28971E-02   -0.35593E-02  6624   0.154E-01    0.182E-01
DAV:   3    -0.290897844241E+04    0.28259E-03   -0.72573E-04  6800   0.295E-02    0.114E-01
DAV:   4    -0.290897834686E+04    0.95548E-04   -0.43381E-04  6496   0.256E-02    0.487E-02
DAV:   5    -0.290897835299E+04   -0.61329E-05   -0.15119E-04  6752   0.146E-02    0.256E-02
DAV:   6    -0.290897835648E+04   -0.34841E-05   -0.40995E-05  6400   0.747E-03
  11 F= -.29440747E+04 E0= -.29440747E+04  d E =-.116584E-01  mag=    -0.0000
       N       E                     dE             d eps       ncg     rms          rms(c)
DAV:   1    -0.290898349258E+04   -0.51396E-02   -0.84201E-01  5536   0.809E-01    0.277E-01
DAV:   2    -0.290898528217E+04   -0.17896E-02   -0.21653E-02  6560   0.118E-01    0.143E-01
DAV:   3    -0.290898514868E+04    0.13349E-03   -0.40573E-04  6720   0.208E-02    0.890E-02
DAV:   4    -0.290898510653E+04    0.42152E-04   -0.19767E-04  6560   0.167E-02    0.517E-02
DAV:   5    -0.290898511046E+04   -0.39326E-05   -0.91415E-05  6688   0.108E-02
  12 F= -.29440816E+04 E0= -.29440816E+04  d E =-.682803E-02  mag=    -0.0000
       N       E                     dE             d eps       ncg     rms          rms(c)
DAV:   1    -0.290898751236E+04   -0.24058E-02   -0.12716E+00  5504   0.994E-01    0.343E-01
DAV:   2    -0.290899020606E+04   -0.26937E-02   -0.32733E-02  6624   0.145E-01    0.176E-01
DAV:   3    -0.290898999518E+04    0.21088E-03   -0.61048E-04  6752   0.261E-02    0.110E-01
DAV:   4    -0.290898991866E+04    0.76523E-04   -0.31932E-04  6560   0.221E-02    0.607E-02
DAV:   5    -0.290898991942E+04   -0.76322E-06   -0.14361E-04  6752   0.142E-02    0.212E-02
DAV:   6    -0.290898992261E+04   -0.31859E-05   -0.46576E-05  6656   0.812E-03
  13 F= -.29440865E+04 E0= -.29440865E+04  d E =-.117306E-01  mag=    -0.0000
       N       E                     dE             d eps       ncg     rms          rms(c)
DAV:   1    -0.290897902406E+04    0.10895E-01   -0.50780E+00  5504   0.199E+00    0.686E-01
DAV:   2    -0.290898982734E+04   -0.10803E-01   -0.13065E-01  6528   0.289E-01    0.354E-01
DAV:   3    -0.290898899564E+04    0.83170E-03   -0.24361E-03  6816   0.519E-02    0.223E-01
DAV:   4    -0.290898866823E+04    0.32741E-03   -0.11936E-03  6624   0.420E-02    0.128E-01
DAV:   5    -0.290898864681E+04    0.21417E-04   -0.57690E-04  6720   0.284E-02    0.411E-02
DAV:   6    -0.290898864858E+04   -0.17696E-05   -0.18992E-04  6688   0.163E-02    0.338E-02
DAV:   7    -0.290898865335E+04   -0.47668E-05   -0.20190E-05  5408   0.498E-03
  14 F= -.29440854E+04 E0= -.29440854E+04  d E =-.106401E-01  mag=    -0.0000
       N       E                     dE             d eps       ncg     rms          rms(c)
DAV:   1    -0.290898812461E+04    0.52397E-03   -0.16354E+00  5504   0.113E+00    0.377E-01
DAV:   2    -0.290899160173E+04   -0.34771E-02   -0.41471E-02  6656   0.163E-01    0.196E-01
DAV:   3    -0.290899134834E+04    0.25339E-03   -0.76765E-04  6784   0.286E-02    0.120E-01
DAV:   4    -0.290899127409E+04    0.74251E-04   -0.41097E-04  6560   0.232E-02    0.700E-02
DAV:   5    -0.290899127973E+04   -0.56338E-05   -0.16826E-04  6752   0.137E-02    0.223E-02
DAV:   6    -0.290899128102E+04   -0.12933E-05   -0.44557E-05  6592   0.776E-03
  15 F= -.29440879E+04 E0= -.29440879E+04  d E =-.131666E-01  mag=    -0.0000
       N       E                     dE             d eps       ncg     rms          rms(c)
DAV:   1    -0.290899640136E+04   -0.51216E-02   -0.71614E-01  5504   0.747E-01    0.244E-01
DAV:   2    -0.290899795839E+04   -0.15570E-02   -0.18607E-02  6560   0.108E-01    0.140E-01
DAV:   3    -0.290899785322E+04    0.10518E-03   -0.32480E-04  6752   0.175E-02    0.866E-02
DAV:   4    -0.290899781414E+04    0.39074E-04   -0.15476E-04  6528   0.140E-02    0.547E-02
DAV:   5    -0.290899780927E+04    0.48730E-05   -0.85794E-05  6720   0.944E-03
  16 F= -.29440946E+04 E0= -.29440946E+04  d E =-.668698E-02  mag=    -0.0000
       N       E                     dE             d eps       ncg     rms          rms(c)
DAV:   1    -0.290899423963E+04    0.35745E-02   -0.64437E+00  5504   0.224E+00    0.758E-01
DAV:   2    -0.290900841486E+04   -0.14175E-01   -0.16897E-01  6560   0.324E-01    0.418E-01
DAV:   3    -0.290900753336E+04    0.88151E-03   -0.28965E-03  6848   0.523E-02    0.263E-01
DAV:   4    -0.290900718154E+04    0.35181E-03   -0.14009E-03  6624   0.423E-02    0.159E-01
DAV:   5    -0.290900715544E+04    0.26098E-04   -0.73228E-04  6688   0.275E-02    0.455E-02
DAV:   6    -0.290900714746E+04    0.79832E-05   -0.18430E-04  6656   0.160E-02    0.342E-02
DAV:   7    -0.290900715051E+04   -0.30465E-05   -0.29839E-05  5856   0.545E-03
  17 F= -.29441044E+04 E0= -.29441044E+04  d E =-.165042E-01  mag=    -0.0000
       N       E                     dE             d eps       ncg     rms          rms(c)
DAV:   1    -0.290901295874E+04   -0.58113E-02   -0.85270E-01  5504   0.826E-01    0.321E-01
DAV:   2    -0.290901474311E+04   -0.17844E-02   -0.22473E-02  6624   0.123E-01    0.147E-01
DAV:   3    -0.290901456511E+04    0.17800E-03   -0.43974E-04  6752   0.229E-02    0.927E-02
DAV:   4    -0.290901450396E+04    0.61155E-04   -0.27147E-04  6560   0.199E-02    0.419E-02
DAV:   5    -0.290901451033E+04   -0.63684E-05   -0.10247E-04  6752   0.113E-02    0.204E-02
DAV:   6    -0.290901451231E+04   -0.19801E-05   -0.21409E-05  5600   0.532E-03
  18 F= -.29441123E+04 E0= -.29441123E+04  d E =-.786357E-02  mag=    -0.0000
       N       E                     dE             d eps       ncg     rms          rms(c)
DAV:   1    -0.290901487150E+04   -0.36117E-03   -0.15269E+00  5504   0.111E+00    0.434E-01
DAV:   2    -0.290901804694E+04   -0.31754E-02   -0.40036E-02  6624   0.165E-01    0.197E-01
DAV:   3    -0.290901772261E+04    0.32433E-03   -0.78918E-04  6880   0.313E-02    0.123E-01
DAV:   4    -0.290901759861E+04    0.12400E-03   -0.46797E-04  6592   0.273E-02    0.547E-02
DAV:   5    -0.290901760334E+04   -0.47346E-05   -0.18894E-04  6752   0.164E-02    0.276E-02
DAV:   6    -0.290901760389E+04   -0.54680E-06   -0.44644E-05  6464   0.766E-03
  19 F= -.29441160E+04 E0= -.29441160E+04  d E =-.116280E-01  mag=    -0.0000
       N       E                     dE             d eps       ncg     rms          rms(c)
DAV:   1    -0.290902246083E+04   -0.48575E-02   -0.98715E-01  5504   0.882E-01    0.312E-01
DAV:   2    -0.290902452314E+04   -0.20623E-02   -0.25182E-02  6560   0.127E-01    0.155E-01
DAV:   3    -0.290902437681E+04    0.14633E-03   -0.46184E-04  6816   0.212E-02    0.102E-01
DAV:   4    -0.290902432123E+04    0.55582E-04   -0.27904E-04  6528   0.193E-02    0.402E-02
DAV:   5    -0.290902433064E+04   -0.94139E-05   -0.78739E-05  6752   0.111E-02
  20 F= -.29441234E+04 E0= -.29441234E+04  d E =-.732166E-02  mag=    -0.0000
       N       E                     dE             d eps       ncg     rms          rms(c)
DAV:   1    -0.290902181812E+04    0.25031E-02   -0.40573E+00  5504   0.179E+00    0.637E-01
DAV:   2    -0.290903030101E+04   -0.84829E-02   -0.10366E-01  6592   0.258E-01    0.318E-01
DAV:   3    -0.290902968248E+04    0.61853E-03   -0.18953E-03  6880   0.429E-02    0.211E-01
DAV:   4    -0.290902941482E+04    0.26766E-03   -0.12102E-03  6496   0.401E-02    0.795E-02
DAV:   5    -0.290902943204E+04   -0.17212E-04   -0.31899E-04  6752   0.225E-02    0.354E-02
DAV:   6    -0.290902944200E+04   -0.99650E-05   -0.10315E-04  6624   0.104E-02    0.255E-02
DAV:   7    -0.290902944620E+04   -0.41966E-05   -0.65831E-06  5024   0.283E-03
  21 F= -.29441297E+04 E0= -.29441297E+04  d E =-.136445E-01  mag=    -0.0000
       N       E                     dE             d eps       ncg     rms          rms(c)
DAV:   1    -0.290903465906E+04   -0.52171E-02   -0.11068E+00  5504   0.924E-01    0.323E-01
DAV:   2    -0.290903716698E+04   -0.25079E-02   -0.29784E-02  6528   0.136E-01    0.165E-01
DAV:   3    -0.290903700447E+04    0.16251E-03   -0.52721E-04  6848   0.228E-02    0.106E-01
DAV:   4    -0.290903695958E+04    0.44885E-04   -0.27217E-04  6624   0.186E-02    0.598E-02
DAV:   5    -0.290903696537E+04   -0.57852E-05   -0.11214E-04  6752   0.115E-02    0.194E-02
DAV:   6    -0.290903696973E+04   -0.43670E-05   -0.31850E-05  5856   0.674E-03
  22 F= -.29441378E+04 E0= -.29441378E+04  d E =-.807187E-02  mag=    -0.0000
       N       E                     dE             d eps       ncg     rms          rms(c)
DAV:   1    -0.290903309232E+04    0.38730E-02   -0.50442E+00  5504   0.197E+00    0.702E-01
DAV:   2    -0.290904440845E+04   -0.11316E-01   -0.13460E-01  6496   0.289E-01    0.353E-01
DAV:   3    -0.290904364841E+04    0.76003E-03   -0.23704E-03  6880   0.488E-02    0.229E-01
DAV:   4    -0.290904339150E+04    0.25692E-03   -0.12044E-03  6576   0.398E-02    0.129E-01
DAV:   5    -0.290904337364E+04    0.17862E-04   -0.51719E-04  6784   0.254E-02    0.408E-02
DAV:   6    -0.290904337211E+04    0.15236E-05   -0.15920E-04  6592   0.149E-02    0.317E-02
DAV:   7    -0.290904337663E+04   -0.45168E-05   -0.18563E-05  5504   0.484E-03
  23 F= -.29441453E+04 E0= -.29441453E+04  d E =-.156489E-01  mag=    -0.0000
       N       E                     dE             d eps       ncg     rms          rms(c)
DAV:   1    -0.290904834704E+04   -0.49749E-02   -0.17637E+00  5504   0.114E+00    0.435E-01
DAV:   2    -0.290905242532E+04   -0.40783E-02   -0.48087E-02  6560   0.168E-01    0.209E-01
DAV:   3    -0.290905214559E+04    0.27973E-03   -0.86991E-04  6784   0.295E-02    0.134E-01
DAV:   4    -0.290905206565E+04    0.79934E-04   -0.42021E-04  6592   0.230E-02    0.752E-02
DAV:   5    -0.290905206747E+04   -0.18147E-05   -0.18159E-04  6784   0.142E-02    0.250E-02
DAV:   6    -0.290905207153E+04   -0.40585E-05   -0.45921E-05  6368   0.778E-03
  24 F= -.29441549E+04 E0= -.29441549E+04  d E =-.960771E-02  mag=    -0.0000
       N       E                     dE             d eps       ncg     rms          rms(c)
DAV:   1    -0.290905039025E+04    0.16772E-02   -0.21401E+00  5504   0.125E+00    0.485E-01
DAV:   2    -0.290905532528E+04   -0.49350E-02   -0.58248E-02  6528   0.185E-01    0.227E-01
DAV:   3    -0.290905498301E+04    0.34227E-03   -0.10437E-03  6816   0.329E-02    0.146E-01
DAV:   4    -0.290905487529E+04    0.10772E-03   -0.51240E-04  6592   0.264E-02    0.779E-02
DAV:   5    -0.290905487383E+04    0.14539E-05   -0.22052E-04  6688   0.165E-02    0.285E-02
DAV:   6    -0.290905487545E+04   -0.16183E-05   -0.58055E-05  6624   0.885E-03
  25 F= -.29441588E+04 E0= -.29441588E+04  d E =-.134169E-01  mag=    -0.0000
       N       E                     dE             d eps       ncg     rms          rms(c)
DAV:   1    -0.290905760453E+04   -0.27307E-02   -0.23635E+00  5504   0.132E+00    0.481E-01
DAV:   2    -0.290906276025E+04   -0.51557E-02   -0.61585E-02  6560   0.192E-01    0.223E-01
DAV:   3    -0.290906241831E+04    0.34195E-03   -0.10940E-03  6784   0.323E-02    0.149E-01
DAV:   4    -0.290906230601E+04    0.11230E-03   -0.62627E-04  6496   0.279E-02    0.531E-02
DAV:   5    -0.290906232711E+04   -0.21099E-04   -0.16740E-04  6720   0.147E-02    0.267E-02
DAV:   6    -0.290906233397E+04   -0.68613E-05   -0.39839E-05  6464   0.661E-03
  26 F= -.29441673E+04 E0= -.29441673E+04  d E =-.855783E-02  mag=    -0.0000
       N       E                     dE             d eps       ncg     rms          rms(c)
DAV:   1    -0.290906148452E+04    0.84259E-03   -0.92539E-01  5504   0.826E-01    0.304E-01
DAV:   2    -0.290906350566E+04   -0.20211E-02   -0.24162E-02  6560   0.120E-01    0.139E-01
DAV:   3    -0.290906337376E+04    0.13190E-03   -0.43101E-04  6816   0.205E-02    0.918E-02
DAV:   4    -0.290906333272E+04    0.41045E-04   -0.23785E-04  6560   0.176E-02    0.340E-02
DAV:   5    -0.290906334324E+04   -0.10524E-04   -0.68849E-05  6688   0.972E-03    0.175E-02
DAV:   6    -0.290906334754E+04   -0.42958E-05   -0.16924E-05  5344   0.455E-03
  27 F= -.29441690E+04 E0= -.29441690E+04  d E =-.102582E-01  mag=    -0.0000
       N       E                     dE             d eps       ncg     rms          rms(c)
DAV:   1    -0.290906760177E+04   -0.42585E-02   -0.21611E+00  5504   0.129E+00    0.491E-01
DAV:   2    -0.290907232394E+04   -0.47222E-02   -0.57811E-02  6560   0.190E-01    0.248E-01
DAV:   3    -0.290907198292E+04    0.34102E-03   -0.11768E-03  6784   0.345E-02    0.152E-01
DAV:   4    -0.290907185983E+04    0.12309E-03   -0.47977E-04  6592   0.251E-02    0.926E-02
DAV:   5    -0.290907184952E+04    0.10316E-04   -0.24774E-04  6688   0.188E-02    0.281E-02
DAV:   6    -0.290907185179E+04   -0.22703E-05   -0.94064E-05  6752   0.118E-02
  28 F= -.29441783E+04 E0= -.29441783E+04  d E =-.926629E-02  mag=    -0.0000
       N       E                     dE             d eps       ncg     rms          rms(c)
DAV:   1    -0.290906999421E+04    0.18553E-02   -0.15683E+00  5504   0.110E+00    0.426E-01
DAV:   2    -0.290907343862E+04   -0.34444E-02   -0.42242E-02  6592   0.162E-01    0.209E-01
DAV:   3    -0.290907318957E+04    0.24906E-03   -0.85031E-04  6816   0.299E-02    0.128E-01
DAV:   4    -0.290907309462E+04    0.94948E-04   -0.34812E-04  6656   0.226E-02    0.765E-02
DAV:   5    -0.290907308573E+04    0.88841E-05   -0.18070E-04  6656   0.174E-02    0.248E-02
DAV:   6    -0.290907308843E+04   -0.26991E-05   -0.78173E-05  6656   0.108E-02
  29 F= -.29441802E+04 E0= -.29441802E+04  d E =-.111532E-01  mag=    -0.0000
       N       E                     dE             d eps       ncg     rms          rms(c)
DAV:   1    -0.290907655917E+04   -0.34734E-02   -0.15133E+00  5504   0.107E+00    0.403E-01
DAV:   2    -0.290908000746E+04   -0.34483E-02   -0.41489E-02  6528   0.155E-01    0.214E-01
DAV:   3    -0.290907980484E+04    0.20262E-03   -0.72193E-04  6720   0.254E-02    0.134E-01
DAV:   4    -0.290907973322E+04    0.71623E-04   -0.31901E-04  6528   0.197E-02    0.824E-02
DAV:   5    -0.290907973427E+04   -0.10519E-05   -0.17315E-04  6688   0.134E-02    0.234E-02
DAV:   6    -0.290907973818E+04   -0.39103E-05   -0.45278E-05  6432   0.788E-03
  30 F= -.29441875E+04 E0= -.29441875E+04  d E =-.729292E-02  mag=    -0.0000
       N       E                     dE             d eps       ncg     rms          rms(c)
DAV:   1    -0.290907517761E+04    0.45567E-02   -0.39478E+00  5504   0.173E+00    0.654E-01
DAV:   2    -0.290908418859E+04   -0.90110E-02   -0.10835E-01  6528   0.250E-01    0.346E-01
DAV:   3    -0.290908363724E+04    0.55135E-03   -0.18903E-03  6848   0.415E-02    0.217E-01
DAV:   4    -0.290908343018E+04    0.20706E-03   -0.82326E-04  6528   0.321E-02    0.135E-01
DAV:   5    -0.290908341417E+04    0.16008E-04   -0.46688E-04  6624   0.228E-02    0.382E-02
DAV:   6    -0.290908341688E+04   -0.27093E-05   -0.12746E-04  6656   0.132E-02    0.287E-02
DAV:   7    -0.290908342141E+04   -0.45334E-05   -0.16249E-05  5312   0.419E-03
  31 F= -.29441922E+04 E0= -.29441922E+04  d E =-.120168E-01  mag=    -0.0000
       N       E                     dE             d eps       ncg     rms          rms(c)
DAV:   1    -0.290908690894E+04   -0.34921E-02   -0.16626E+00  5504   0.113E+00    0.459E-01
DAV:   2    -0.290909105198E+04   -0.41430E-02   -0.50100E-02  6560   0.171E-01    0.211E-01
DAV:   3    -0.290909075871E+04    0.29328E-03   -0.86809E-04  6784   0.301E-02    0.141E-01
DAV:   4    -0.290909064343E+04    0.11527E-03   -0.51335E-04  6624   0.268E-02    0.597E-02
DAV:   5    -0.290909065633E+04   -0.12894E-04   -0.17678E-04  6720   0.150E-02    0.256E-02
DAV:   6    -0.290909065903E+04   -0.26983E-05   -0.44004E-05  6592   0.755E-03
  32 F= -.29442002E+04 E0= -.29442002E+04  d E =-.801092E-02  mag=    -0.0000
       N       E                     dE             d eps       ncg     rms          rms(c)
DAV:   1    -0.290908990236E+04    0.75397E-03   -0.82826E-01  5504   0.796E-01    0.329E-01
DAV:   2    -0.290909195980E+04   -0.20574E-02   -0.24969E-02  6560   0.121E-01    0.147E-01
DAV:   3    -0.290909181612E+04    0.14368E-03   -0.43387E-04  6816   0.218E-02    0.966E-02
DAV:   4    -0.290909175835E+04    0.57770E-04   -0.24472E-04  6496   0.195E-02    0.411E-02
DAV:   5    -0.290909176380E+04   -0.54464E-05   -0.94203E-05  6720   0.115E-02
  33 F= -.29442018E+04 E0= -.29442018E+04  d E =-.966227E-02  mag=    -0.0000
       N       E                     dE             d eps       ncg     rms          rms(c)
DAV:   1    -0.290909475708E+04   -0.29987E-02   -0.16483E+00  5504   0.112E+00    0.455E-01
DAV:   2    -0.290909889818E+04   -0.41411E-02   -0.48947E-02  6528   0.168E-01    0.198E-01
DAV:   3    -0.290909864963E+04    0.24854E-03   -0.82893E-04  6768   0.284E-02    0.133E-01
DAV:   4    -0.290909856576E+04    0.83871E-04   -0.48362E-04  6528   0.249E-02    0.551E-02
DAV:   5    -0.290909857796E+04   -0.12197E-04   -0.13533E-04  6784   0.131E-02    0.248E-02
DAV:   6    -0.290909858064E+04   -0.26835E-05   -0.39767E-05  6304   0.699E-03
  34 F= -.29442095E+04 E0= -.29442095E+04  d E =-.762693E-02  mag=    -0.0000
       N       E                     dE             d eps       ncg     rms          rms(c)
DAV:   1    -0.290909818329E+04    0.39467E-03   -0.71490E-01  5504   0.737E-01    0.303E-01
DAV:   2    -0.290909997562E+04   -0.17923E-02   -0.21168E-02  6528   0.111E-01    0.128E-01
DAV:   3    -0.290909987020E+04    0.10542E-03   -0.35423E-04  6784   0.189E-02    0.851E-02
DAV:   4    -0.290909983239E+04    0.37811E-04   -0.20352E-04  6624   0.169E-02    0.334E-02
DAV:   5    -0.290909983802E+04   -0.56332E-05   -0.60565E-05  6688   0.953E-03
  35 F= -.29442113E+04 E0= -.29442113E+04  d E =-.941802E-02  mag=    -0.0000
       N       E                     dE             d eps       ncg     rms          rms(c)
DAV:   1    -0.290910259215E+04   -0.27598E-02   -0.17192E+00  5504   0.116E+00    0.406E-01
DAV:   2    -0.290910636608E+04   -0.37739E-02   -0.45333E-02  6560   0.170E-01    0.187E-01
DAV:   3    -0.290910608177E+04    0.28431E-03   -0.83197E-04  6752   0.301E-02    0.123E-01
DAV:   4    -0.290910596220E+04    0.11957E-03   -0.50008E-04  6592   0.274E-02    0.484E-02
DAV:   5    -0.290910597220E+04   -0.99998E-05   -0.16442E-04  6816   0.151E-02    0.235E-02
DAV:   6    -0.290910597355E+04   -0.13503E-05   -0.40303E-05  6400   0.684E-03
  36 F= -.29442185E+04 E0= -.29442185E+04  d E =-.725827E-02  mag=    -0.0000
       N       E                     dE             d eps       ncg     rms          rms(c)
DAV:   1    -0.290910494511E+04    0.10271E-02   -0.84271E-01  5504   0.811E-01    0.287E-01
DAV:   2    -0.290910679944E+04   -0.18543E-02   -0.22296E-02  6592   0.119E-01    0.130E-01
DAV:   3    -0.290910665923E+04    0.14021E-03   -0.41131E-04  6848   0.216E-02    0.850E-02
DAV:   4    -0.290910659970E+04    0.59534E-04   -0.22545E-04  6544   0.194E-02    0.369E-02
DAV:   5    -0.290910660379E+04   -0.40951E-05   -0.92517E-05  6688   0.116E-02
  37 F= -.29442199E+04 E0= -.29442199E+04  d E =-.867479E-02  mag=    -0.0000
       N       E                     dE             d eps       ncg     rms          rms(c)
DAV:   1    -0.290910845581E+04   -0.18561E-02   -0.12902E+00  5504   0.997E-01    0.340E-01
DAV:   2    -0.290911129560E+04   -0.28398E-02   -0.33319E-02  6544   0.143E-01    0.161E-01
DAV:   3    -0.290911112842E+04    0.16718E-03   -0.57654E-04  6752   0.233E-02    0.107E-01
DAV:   4    -0.290911106530E+04    0.63121E-04   -0.33472E-04  6464   0.217E-02    0.422E-02
DAV:   5    -0.290911107703E+04   -0.11736E-04   -0.97486E-05  6656   0.119E-02    0.173E-02
DAV:   6    -0.290911108056E+04   -0.35242E-05   -0.23402E-05  5600   0.530E-03
  38 F= -.29442255E+04 E0= -.29442255E+04  d E =-.558748E-02  mag=    -0.0000
       N       E                     dE             d eps       ncg     rms          rms(c)
DAV:   1    -0.290911042971E+04    0.64732E-03   -0.77372E-01  5504   0.772E-01    0.265E-01
DAV:   2    -0.290911213851E+04   -0.17088E-02   -0.20012E-02  6560   0.111E-01    0.124E-01
DAV:   3    -0.290911203655E+04    0.10196E-03   -0.34335E-04  6752   0.182E-02    0.816E-02
DAV:   4    -0.290911199654E+04    0.40009E-04   -0.18951E-04  6560   0.168E-02    0.344E-02
DAV:   5    -0.290911200284E+04   -0.62992E-05   -0.66304E-05  6720   0.990E-03
  39 F= -.29442273E+04 E0= -.29442273E+04  d E =-.737059E-02  mag=    -0.0000
       N       E                     dE             d eps       ncg     rms          rms(c)
DAV:   1    -0.290911475760E+04   -0.27611E-02   -0.56335E-01  5504   0.677E-01    0.262E-01
DAV:   2    -0.290911605096E+04   -0.12934E-02   -0.16152E-02  6688   0.105E-01    0.115E-01
DAV:   3    -0.290911591903E+04    0.13193E-03   -0.34413E-04  6720   0.213E-02    0.742E-02
DAV:   4    -0.290911586773E+04    0.51292E-04   -0.23020E-04  6624   0.194E-02    0.264E-02
DAV:   5    -0.290911586989E+04   -0.21516E-05   -0.74603E-05  6752   0.104E-02
  40 F= -.29442317E+04 E0= -.29442317E+04  d E =-.442527E-02  mag=    -0.0000
       N       E                     dE             d eps       ncg     rms          rms(c)
DAV:   1    -0.290911601326E+04   -0.14553E-03   -0.20336E-01  5568   0.407E-01    0.161E-01
DAV:   2    -0.290911648044E+04   -0.46718E-03   -0.58758E-03  6720   0.633E-02    0.690E-02
DAV:   3    -0.290911642963E+04    0.50805E-04   -0.12566E-04  6880   0.134E-02    0.440E-02
DAV:   4    -0.290911640788E+04    0.21759E-04   -0.82770E-05  6560   0.128E-02    0.165E-02
DAV:   5    -0.290911640842E+04   -0.54238E-06   -0.32453E-05  6080   0.731E-03
  41 F= -.29442326E+04 E0= -.29442326E+04  d E =-.529997E-02  mag=    -0.0000
       N       E                     dE             d eps       ncg     rms          rms(c)
DAV:   1    -0.290911855191E+04   -0.21440E-02   -0.67195E-01  5504   0.733E-01    0.265E-01
DAV:   2    -0.290912010808E+04   -0.15562E-02   -0.18543E-02  6624   0.108E-01    0.127E-01
DAV:   3    -0.290911999311E+04    0.11497E-03   -0.31650E-04  6752   0.193E-02    0.848E-02
DAV:   4    -0.290911994737E+04    0.45740E-04   -0.27147E-04  6592   0.202E-02    0.304E-02
DAV:   5    -0.290911995220E+04   -0.48373E-05   -0.73176E-05  6752   0.961E-03
  42 F= -.29442368E+04 E0= -.29442368E+04  d E =-.421648E-02  mag=    -0.0000
       N       E                     dE             d eps       ncg     rms          rms(c)
DAV:   1    -0.290911946715E+04    0.48022E-03   -0.51755E-01  5504   0.643E-01    0.235E-01
DAV:   2    -0.290912066884E+04   -0.12017E-02   -0.14365E-02  6688   0.955E-02    0.111E-01
DAV:   3    -0.290912057947E+04    0.89369E-04   -0.24596E-04  6752   0.174E-02    0.741E-02
DAV:   4    -0.290912054189E+04    0.37576E-04   -0.20899E-04  6624   0.187E-02    0.266E-02
DAV:   5    -0.290912054487E+04   -0.29819E-05   -0.63756E-05  6720   0.930E-03
  43 F= -.29442380E+04 E0= -.29442380E+04  d E =-.540080E-02  mag=    -0.0000
       N       E                     dE             d eps       ncg     rms          rms(c)
DAV:   1    -0.290912193890E+04   -0.13970E-02   -0.77930E-01  5504   0.793E-01    0.288E-01
DAV:   2    -0.290912375285E+04   -0.18139E-02   -0.21660E-02  6624   0.119E-01    0.133E-01
DAV:   3    -0.290912362827E+04    0.12458E-03   -0.38904E-04  6720   0.203E-02    0.871E-02
DAV:   4    -0.290912357702E+04    0.51253E-04   -0.25335E-04  6656   0.188E-02    0.367E-02
DAV:   5    -0.290912358136E+04   -0.43401E-05   -0.75869E-05  6704   0.975E-03
  44 F= -.29442417E+04 E0= -.29442417E+04  d E =-.373986E-02  mag=    -0.0000
       N       E                     dE             d eps       ncg     rms          rms(c)
DAV:   1    -0.290912304652E+04    0.53049E-03   -0.38334E-01  5568   0.556E-01    0.205E-01
DAV:   2    -0.290912394130E+04   -0.89478E-03   -0.10734E-02  6656   0.836E-02    0.922E-02
DAV:   3    -0.290912387922E+04    0.62083E-04   -0.19377E-04  6784   0.146E-02    0.607E-02
DAV:   4    -0.290912385333E+04    0.25881E-04   -0.13988E-04  6560   0.145E-02    0.221E-02
DAV:   5    -0.290912385598E+04   -0.26498E-05   -0.38691E-05  6240   0.755E-03
  45 F= -.29442425E+04 E0= -.29442425E+04  d E =-.450812E-02  mag=    -0.0000
       N       E                     dE             d eps       ncg     rms          rms(c)
DAV:   1    -0.290912467137E+04   -0.81804E-03   -0.95828E-01  5504   0.871E-01    0.306E-01
DAV:   2    -0.290912687665E+04   -0.22053E-02   -0.26111E-02  6592   0.130E-01    0.148E-01
DAV:   3    -0.290912672074E+04    0.15591E-03   -0.48108E-04  6752   0.232E-02    0.951E-02
DAV:   4    -0.290912666370E+04    0.57045E-04   -0.27278E-04  6656   0.206E-02    0.471E-02
DAV:   5    -0.290912666711E+04   -0.34125E-05   -0.10705E-04  6784   0.122E-02    0.192E-02
DAV:   6    -0.290912666686E+04    0.24930E-06   -0.33398E-05  6336   0.683E-03
  46 F= -.29442460E+04 E0= -.29442460E+04  d E =-.351726E-02  mag=    -0.0000
       N       E                     dE             d eps       ncg     rms          rms(c)
DAV:   1    -0.290912609553E+04    0.57158E-03   -0.29004E-01  5536   0.480E-01    0.171E-01
DAV:   2    -0.290912675982E+04   -0.66428E-03   -0.79180E-03  6624   0.716E-02    0.808E-02
DAV:   3    -0.290912671198E+04    0.47837E-04   -0.14796E-04  6848   0.133E-02    0.516E-02
DAV:   4    -0.290912669280E+04    0.19176E-04   -0.75973E-05  6560   0.119E-02    0.258E-02
DAV:   5    -0.290912669311E+04   -0.30251E-06   -0.35489E-05  6016   0.785E-03
  47 F= -.29442464E+04 E0= -.29442464E+04  d E =-.393264E-02  mag=    -0.0000
       N       E                     dE             d eps       ncg     rms          rms(c)
DAV:   1    -0.290912786467E+04   -0.11719E-02   -0.66026E-01  5504   0.712E-01    0.256E-01
DAV:   2    -0.290912937219E+04   -0.15075E-02   -0.17449E-02  6560   0.104E-01    0.121E-01
DAV:   3    -0.290912928128E+04    0.90906E-04   -0.28484E-04  6848   0.173E-02    0.785E-02
DAV:   4    -0.290912925158E+04    0.29705E-04   -0.17342E-04  6560   0.164E-02    0.372E-02
DAV:   5    -0.290912925726E+04   -0.56783E-05   -0.66864E-05  6720   0.908E-03
  48 F= -.29442497E+04 E0= -.29442497E+04  d E =-.324941E-02  mag=    -0.0000
       N       E                     dE             d eps       ncg     rms          rms(c)
DAV:   1    -0.290912823164E+04    0.10199E-02   -0.79489E-01  5504   0.781E-01    0.283E-01
DAV:   2    -0.290913005058E+04   -0.18189E-02   -0.21067E-02  6560   0.114E-01    0.132E-01
DAV:   3    -0.290912994025E+04    0.11033E-03   -0.34210E-04  6816   0.193E-02    0.859E-02
DAV:   4    -0.290912990264E+04    0.37610E-04   -0.21164E-04  6624   0.188E-02    0.397E-02
DAV:   5    -0.290912990897E+04   -0.63251E-05   -0.84549E-05  6720   0.106E-02
  49 F= -.29442511E+04 E0= -.29442511E+04  d E =-.465377E-02  mag=    -0.0000
       N       E                     dE             d eps       ncg     rms          rms(c)
DAV:   1    -0.290913156822E+04   -0.16656E-02   -0.54220E-01  5504   0.650E-01    0.249E-01
DAV:   2    -0.290913281476E+04   -0.12465E-02   -0.14994E-02  6624   0.993E-02    0.112E-01
DAV:   3    -0.290913270755E+04    0.10721E-03   -0.30272E-04  6688   0.194E-02    0.726E-02
DAV:   4    -0.290913267089E+04    0.36660E-04   -0.22664E-04  6624   0.187E-02    0.261E-02
DAV:   5    -0.290913267346E+04   -0.25695E-05   -0.63370E-05  6784   0.984E-03
  50 F= -.29442546E+04 E0= -.29442546E+04  d E =-.350760E-02  mag=    -0.0000
       N       E                     dE             d eps       ncg     rms          rms(c)
DAV:   1    -0.290913228770E+04    0.38320E-03   -0.27869E-01  5568   0.466E-01    0.180E-01
DAV:   2    -0.290913293165E+04   -0.64395E-03   -0.77777E-03  6656   0.716E-02    0.804E-02
DAV:   3    -0.290913287365E+04    0.58000E-04   -0.15830E-04  6816   0.145E-02    0.520E-02
DAV:   4    -0.290913285098E+04    0.22671E-04   -0.10894E-04  6592   0.139E-02    0.204E-02
DAV:   5    -0.290913285142E+04   -0.44372E-06   -0.35650E-05  5888   0.799E-03
  51 F= -.29442553E+04 E0= -.29442553E+04  d E =-.421945E-02  mag=     0.0000
       N       E                     dE             d eps       ncg     rms          rms(c)
DAV:   1    -0.290913393967E+04   -0.10887E-02   -0.57764E-01  5504   0.666E-01    0.247E-01
DAV:   2    -0.290913523462E+04   -0.12950E-02   -0.15267E-02  6528   0.984E-02    0.113E-01
DAV:   3    -0.290913514213E+04    0.92494E-04   -0.27453E-04  6784   0.171E-02    0.744E-02
DAV:   4    -0.290913511732E+04    0.24808E-04   -0.20626E-04  6528   0.166E-02    0.307E-02
DAV:   5    -0.290913512099E+04   -0.36732E-05   -0.53762E-05  6592   0.822E-03
  52 F= -.29442584E+04 E0= -.29442584E+04  d E =-.308033E-02  mag=     0.0000
       N       E                     dE             d eps       ncg     rms          rms(c)
DAV:   1    -0.290913394031E+04    0.11770E-02   -0.73494E-01  5504   0.752E-01    0.282E-01
DAV:   2    -0.290913558798E+04   -0.16477E-02   -0.19476E-02  6592   0.111E-01    0.127E-01
DAV:   3    -0.290913547050E+04    0.11748E-03   -0.35138E-04  6784   0.196E-02    0.838E-02
DAV:   4    -0.290913543471E+04    0.35788E-04   -0.27619E-04  6528   0.199E-02    0.303E-02
DAV:   5    -0.290913543940E+04   -0.46871E-05   -0.71748E-05  6752   0.992E-03
  53 F= -.29442596E+04 E0= -.29442596E+04  d E =-.431437E-02  mag=     0.0000
       N       E                     dE             d eps       ncg     rms          rms(c)
DAV:   1    -0.290913663650E+04   -0.12018E-02   -0.68034E-01  5504   0.723E-01    0.280E-01
DAV:   2    -0.290913819371E+04   -0.15572E-02   -0.18324E-02  6560   0.107E-01    0.126E-01
DAV:   3    -0.290913808707E+04    0.10664E-03   -0.32092E-04  6752   0.186E-02    0.821E-02
DAV:   4    -0.290913805606E+04    0.31015E-04   -0.23446E-04  6592   0.185E-02    0.333E-02
DAV:   5    -0.290913806221E+04   -0.61471E-05   -0.71897E-05  6688   0.913E-03
  54 F= -.29442631E+04 E0= -.29442631E+04  d E =-.349235E-02  mag=     0.0000
       N       E                     dE             d eps       ncg     rms          rms(c)
DAV:   1    -0.290913486672E+04    0.31893E-02   -0.13687E+00  5504   0.102E+00    0.399E-01
DAV:   2    -0.290913799581E+04   -0.31291E-02   -0.36896E-02  6576   0.152E-01    0.179E-01
DAV:   3    -0.290913777272E+04    0.22309E-03   -0.64934E-04  6816   0.268E-02    0.117E-01
DAV:   4    -0.290913769762E+04    0.75106E-04   -0.46688E-04  6528   0.270E-02    0.482E-02
DAV:   5    -0.290913770698E+04   -0.93688E-05   -0.15904E-04  6656   0.137E-02    0.245E-02
DAV:   6    -0.290913770578E+04    0.12078E-05   -0.35579E-05  6208   0.681E-03
  55 F= -.29442640E+04 E0= -.29442640E+04  d E =-.436998E-02  mag=     0.0000
       N       E                     dE             d eps       ncg     rms          rms(c)
DAV:   1    -0.290913805536E+04   -0.34838E-03   -0.12614E-01  5568   0.311E-01    0.114E-01
DAV:   2    -0.290913833870E+04   -0.28334E-03   -0.33098E-03  6624   0.457E-02    0.552E-02
DAV:   3    -0.290913831869E+04    0.20013E-04   -0.58192E-05  6432   0.765E-03    0.363E-02
DAV:   4    -0.290913831637E+04    0.23260E-05   -0.45090E-05  6176   0.751E-03    0.152E-02
DAV:   5    -0.290913831941E+04   -0.30424E-05   -0.12082E-05  5056   0.343E-03
  56 F= -.29442642E+04 E0= -.29442642E+04  d E =-.460885E-02  mag=     0.0000
       N       E                     dE             d eps       ncg     rms          rms(c)
DAV:   1    -0.290913905872E+04   -0.74235E-03   -0.79916E-01  5504   0.780E-01    0.309E-01
DAV:   2    -0.290914091570E+04   -0.18570E-02   -0.21768E-02  6528   0.116E-01    0.139E-01
DAV:   3    -0.290914078796E+04    0.12774E-03   -0.38127E-04  6688   0.197E-02    0.924E-02
DAV:   4    -0.290914074296E+04    0.44998E-04   -0.27839E-04  6592   0.197E-02    0.386E-02
DAV:   5    -0.290914074805E+04   -0.50896E-05   -0.85006E-05  6752   0.983E-03
  57 F= -.29442676E+04 E0= -.29442676E+04  d E =-.338219E-02  mag=     0.0000
       N       E                     dE             d eps       ncg     rms          rms(c)
DAV:   1    -0.290913986314E+04    0.87981E-03   -0.43100E-01  5568   0.572E-01    0.234E-01
DAV:   2    -0.290914087569E+04   -0.10125E-02   -0.11951E-02  6528   0.857E-02    0.102E-01
DAV:   3    -0.290914080923E+04    0.66463E-04   -0.20972E-04  6816   0.150E-02    0.675E-02
DAV:   4    -0.290914078745E+04    0.21783E-04   -0.16304E-04  6528   0.159E-02    0.253E-02
DAV:   5    -0.290914079138E+04   -0.39350E-05   -0.47392E-05  6528   0.804E-03
  58 F= -.29442684E+04 E0= -.29442684E+04  d E =-.412611E-02  mag=     0.0000
       N       E                     dE             d eps       ncg     rms          rms(c)
DAV:   1    -0.290914162753E+04   -0.84008E-03   -0.94097E-01  5504   0.841E-01    0.346E-01
DAV:   2    -0.290914378600E+04   -0.21585E-02   -0.25671E-02  6560   0.125E-01    0.150E-01
DAV:   3    -0.290914363680E+04    0.14919E-03   -0.46989E-04  6752   0.215E-02    0.100E-01
DAV:   4    -0.290914358530E+04    0.51503E-04   -0.33355E-04  6560   0.211E-02    0.382E-02
DAV:   5    -0.290914359324E+04   -0.79431E-05   -0.91053E-05  6752   0.110E-02
  59 F= -.29442721E+04 E0= -.29442721E+04  d E =-.374701E-02  mag=     0.0000
       N       E                     dE             d eps       ncg     rms          rms(c)
DAV:   1    -0.290914271377E+04    0.87153E-03   -0.44702E-01  5568   0.579E-01    0.242E-01
DAV:   2    -0.290914374443E+04   -0.10307E-02   -0.12278E-02  6528   0.867E-02    0.103E-01
DAV:   3    -0.290914367350E+04    0.70924E-04   -0.22505E-04  6832   0.153E-02    0.683E-02
DAV:   4    -0.290914364877E+04    0.24735E-04   -0.15678E-04  6528   0.153E-02    0.261E-02
DAV:   5    -0.290914365254E+04   -0.37702E-05   -0.46803E-05  6432   0.853E-03
  60 F= -.29442728E+04 E0= -.29442728E+04  d E =-.445848E-02  mag=     0.0000
       N       E                     dE             d eps       ncg     rms          rms(c)
DAV:   1    -0.290914435554E+04   -0.70677E-03   -0.96042E-01  5504   0.832E-01    0.339E-01
DAV:   2    -0.290914653675E+04   -0.21812E-02   -0.25737E-02  6464   0.123E-01    0.151E-01
DAV:   3    -0.290914639108E+04    0.14567E-03   -0.45451E-04  6816   0.219E-02    0.101E-01
DAV:   4    -0.290914634537E+04    0.45711E-04   -0.32657E-04  6528   0.217E-02    0.398E-02
DAV:   5    -0.290914635399E+04   -0.86164E-05   -0.99309E-05  6784   0.113E-02
  61 F= -.29442765E+04 E0= -.29442765E+04  d E =-.371931E-02  mag=     0.0000
       N       E                     dE             d eps       ncg     rms          rms(c)
DAV:   1    -0.290914545491E+04    0.89046E-03   -0.48661E-01  5568   0.592E-01    0.245E-01
DAV:   2    -0.290914656516E+04   -0.11102E-02   -0.13136E-02  6496   0.880E-02    0.107E-01
DAV:   3    -0.290914649133E+04    0.73827E-04   -0.23187E-04  6816   0.162E-02    0.716E-02
DAV:   4    -0.290914646839E+04    0.22936E-04   -0.17405E-04  6464   0.172E-02    0.261E-02
DAV:   5    -0.290914647334E+04   -0.49514E-05   -0.60061E-05  6784   0.916E-03
  62 F= -.29442774E+04 E0= -.29442774E+04  d E =-.456414E-02  mag=     0.0000
       N       E                     dE             d eps       ncg     rms          rms(c)
DAV:   1    -0.290914651952E+04   -0.51124E-04   -0.12002E+00  5504   0.927E-01    0.372E-01
DAV:   2    -0.290914914096E+04   -0.26214E-02   -0.31289E-02  6528   0.137E-01    0.164E-01
DAV:   3    -0.290914894785E+04    0.19311E-03   -0.55269E-04  6688   0.246E-02    0.108E-01
DAV:   4    -0.290914888041E+04    0.67438E-04   -0.39251E-04  6464   0.248E-02    0.407E-02
DAV:   5    -0.290914889204E+04   -0.11628E-04   -0.13095E-04  6720   0.125E-02    0.226E-02
DAV:   6    -0.290914889183E+04    0.21252E-06   -0.22661E-05  5344   0.539E-03
  63 F= -.29442811E+04 E0= -.29442811E+04  d E =-.370412E-02  mag=     0.0000
       N       E                     dE             d eps       ncg     rms          rms(c)
DAV:   1    -0.290914844203E+04    0.45001E-03   -0.15576E-01  5568   0.334E-01    0.138E-01
DAV:   2    -0.290914878500E+04   -0.34296E-03   -0.40925E-03  6608   0.498E-02    0.589E-02
DAV:   3    -0.290914876117E+04    0.23828E-04   -0.72027E-05  6528   0.935E-03    0.383E-02
DAV:   4    -0.290914875381E+04    0.73549E-05   -0.45081E-05  6144   0.949E-03    0.158E-02
DAV:   5    -0.290914875654E+04   -0.27306E-05   -0.19639E-05  5440   0.545E-03
  64 F= -.29442814E+04 E0= -.29442814E+04  d E =-.403206E-02  mag=     0.0000
       N       E                     dE             d eps       ncg     rms          rms(c)
DAV:   1    -0.290914875913E+04   -0.53142E-05   -0.11326E+00  5504   0.901E-01    0.347E-01
DAV:   2    -0.290915118011E+04   -0.24210E-02   -0.29075E-02  6544   0.133E-01    0.160E-01
DAV:   3    -0.290915099593E+04    0.18418E-03   -0.54623E-04  6720   0.236E-02    0.105E-01
DAV:   4    -0.290915092817E+04    0.67758E-04   -0.37210E-04  6496   0.220E-02    0.395E-02
DAV:   5    -0.290915093665E+04   -0.84801E-05   -0.99698E-05  6688   0.113E-02
  65 F= -.29442849E+04 E0= -.29442849E+04  d E =-.348485E-02  mag=     0.0000
       N       E                     dE             d eps       ncg     rms          rms(c)
DAV:   1    -0.290915034109E+04    0.58708E-03   -0.18935E-01  5568   0.368E-01    0.147E-01
DAV:   2    -0.290915075281E+04   -0.41172E-03   -0.49595E-03  6656   0.550E-02    0.649E-02
DAV:   3    -0.290915072442E+04    0.28393E-04   -0.93703E-05  6752   0.102E-02    0.424E-02
DAV:   4    -0.290915071679E+04    0.76296E-05   -0.64012E-05  6288   0.100E-02    0.155E-02
DAV:   5    -0.290915071979E+04   -0.29966E-05   -0.18278E-05  5376   0.549E-03
  66 F= -.29442852E+04 E0= -.29442852E+04  d E =-.380218E-02  mag=     0.0000
       N       E                     dE             d eps       ncg     rms          rms(c)
DAV:   1    -0.290915008852E+04    0.62827E-03   -0.12212E+00  5504   0.947E-01    0.373E-01
DAV:   2    -0.290915280960E+04   -0.27211E-02   -0.32363E-02  6528   0.140E-01    0.170E-01
DAV:   3    -0.290915261867E+04    0.19094E-03   -0.57934E-04  6720   0.241E-02    0.112E-01
DAV:   4    -0.290915254519E+04    0.73480E-04   -0.40808E-04  6528   0.228E-02    0.445E-02
DAV:   5    -0.290915255355E+04   -0.83637E-05   -0.11262E-04  6784   0.119E-02    0.211E-02
DAV:   6    -0.290915255477E+04   -0.12235E-05   -0.31610E-05  6208   0.638E-03
  67 F= -.29442883E+04 E0= -.29442883E+04  d E =-.310738E-02  mag=     0.0000
       N       E                     dE             d eps       ncg     rms          rms(c)
DAV:   1    -0.290915228215E+04    0.27140E-03   -0.65068E-02  5568   0.219E-01    0.901E-02
DAV:   2    -0.290915243094E+04   -0.14879E-03   -0.17581E-03  6656   0.326E-02    0.386E-02
DAV:   3    -0.290915242269E+04    0.82526E-05   -0.30377E-05  5424   0.595E-03    0.252E-02
DAV:   4    -0.290915242160E+04    0.10913E-05   -0.19325E-05  5120   0.578E-03    0.106E-02
DAV:   5    -0.290915242405E+04   -0.24555E-05   -0.85799E-06  4960   0.357E-03
  68 F= -.29442885E+04 E0= -.29442885E+04  d E =-.327036E-02  mag=     0.0000
       N       E                     dE             d eps       ncg     rms          rms(c)
DAV:   1    -0.290915210441E+04    0.31718E-03   -0.10772E+00  5504   0.910E-01    0.372E-01
DAV:   2    -0.290915461448E+04   -0.25101E-02   -0.29891E-02  6528   0.136E-01    0.163E-01
DAV:   3    -0.290915441616E+04    0.19832E-03   -0.52734E-04  6752   0.241E-02    0.108E-01
DAV:   4    -0.290915434258E+04    0.73578E-04   -0.37767E-04  6560   0.234E-02    0.416E-02
DAV:   5    -0.290915435250E+04   -0.99119E-05   -0.11415E-04  6720   0.119E-02    0.190E-02
DAV:   6    -0.290915435410E+04   -0.16039E-05   -0.19570E-05  5216   0.496E-03
  69 F= -.29442915E+04 E0= -.29442915E+04  d E =-.305263E-02  mag=     0.0000
       N       E                     dE             d eps       ncg     rms          rms(c)
DAV:   1    -0.290915416465E+04    0.18785E-03   -0.36795E-02  5568   0.168E-01    0.730E-02
DAV:   2    -0.290915425333E+04   -0.88682E-04   -0.10441E-03  6656   0.254E-02    0.297E-02
DAV:   3    -0.290915424778E+04    0.55548E-05   -0.17135E-05  5216   0.486E-03    0.193E-02
DAV:   4    -0.290915424740E+04    0.37946E-06   -0.11360E-05  4896   0.474E-03    0.941E-03
DAV:   5    -0.290915424904E+04   -0.16440E-05   -0.61031E-06  4864   0.309E-03
  70 F= -.29442917E+04 E0= -.29442917E+04  d E =-.315484E-02  mag=     0.0000
       N       E                     dE             d eps       ncg     rms          rms(c)
DAV:   1    -0.290915333557E+04    0.91183E-03   -0.10865E+00  5504   0.911E-01    0.356E-01
DAV:   2    -0.290915587543E+04   -0.25399E-02   -0.29847E-02  6496   0.135E-01    0.160E-01
DAV:   3    -0.290915569998E+04    0.17545E-03   -0.51353E-04  6720   0.232E-02    0.107E-01
DAV:   4    -0.290915562746E+04    0.72512E-04   -0.36184E-04  6528   0.233E-02    0.411E-02
DAV:   5    -0.290915563612E+04   -0.86555E-05   -0.11061E-04  6752   0.118E-02    0.187E-02
DAV:   6    -0.290915563713E+04   -0.10123E-05   -0.20376E-05  5248   0.500E-03
  71 F= -.29442944E+04 E0= -.29442944E+04  d E =-.271819E-02  mag=     0.0000
       N       E                     dE             d eps       ncg     rms          rms(c)
DAV:   1    -0.290915523059E+04    0.40553E-03   -0.73453E-02  5568   0.237E-01    0.954E-02
DAV:   2    -0.290915540590E+04   -0.17531E-03   -0.20559E-03  6688   0.354E-02    0.412E-02
DAV:   3    -0.290915539467E+04    0.11229E-04   -0.33940E-05  5632   0.639E-03    0.275E-02
DAV:   4    -0.290915539107E+04    0.36017E-05   -0.24929E-05  5408   0.682E-03    0.102E-02
DAV:   5    -0.290915539293E+04   -0.18610E-05   -0.96687E-06  4896   0.385E-03
  72 F= -.29442945E+04 E0= -.29442945E+04  d E =-.281929E-02  mag=     0.0000
       N       E                     dE             d eps       ncg     rms          rms(c)
DAV:   1    -0.290915420145E+04    0.11896E-02   -0.11464E+00  5504   0.931E-01    0.357E-01
DAV:   2    -0.290915684598E+04   -0.26445E-02   -0.31134E-02  6528   0.138E-01    0.159E-01
DAV:   3    -0.290915666519E+04    0.18079E-03   -0.56764E-04  6784   0.244E-02    0.106E-01
DAV:   4    -0.290915659350E+04    0.71687E-04   -0.36756E-04  6560   0.230E-02    0.400E-02
DAV:   5    -0.290915660098E+04   -0.74778E-05   -0.10933E-04  6784   0.120E-02    0.199E-02
DAV:   6    -0.290915660171E+04   -0.72859E-06   -0.25431E-05  5728   0.579E-03
  73 F= -.29442972E+04 E0= -.29442972E+04  d E =-.272485E-02  mag=     0.0000
       N       E                     dE             d eps       ncg     rms          rms(c)
DAV:   1    -0.290915636697E+04    0.23401E-03   -0.27922E-02  5568   0.145E-01    0.601E-02
DAV:   2    -0.290915643371E+04   -0.66731E-04   -0.78316E-04  6688   0.219E-02    0.244E-02
DAV:   3    -0.290915643037E+04    0.33351E-05   -0.13649E-05  5120   0.436E-03    0.160E-02
DAV:   4    -0.290915643053E+04   -0.16089E-06   -0.73958E-06  4832   0.415E-03    0.803E-03
DAV:   5    -0.290915643187E+04   -0.13339E-05   -0.47458E-06  4832   0.285E-03
  74 F= -.29442973E+04 E0= -.29442973E+04  d E =-.279123E-02  mag=     0.0000
       N       E                     dE             d eps       ncg     rms          rms(c)
DAV:   1    -0.290915583590E+04    0.59463E-03   -0.85903E-01  5504   0.802E-01    0.310E-01
DAV:   2    -0.290915778052E+04   -0.19446E-02   -0.23216E-02  6560   0.121E-01    0.137E-01
DAV:   3    -0.290915762426E+04    0.15626E-03   -0.42829E-04  6688   0.218E-02    0.904E-02
DAV:   4    -0.290915756241E+04    0.61847E-04   -0.29267E-04  6592   0.206E-02    0.321E-02
DAV:   5    -0.290915756634E+04   -0.39256E-05   -0.89739E-05  6752   0.112E-02
  75 F= -.29442995E+04 E0= -.29442995E+04  d E =-.228666E-02  mag=     0.0000
       N       E                     dE             d eps       ncg     rms          rms(c)
DAV:   1    -0.290915742253E+04    0.13988E-03   -0.12443E-02  5760   0.966E-02    0.447E-02
DAV:   2    -0.290915745146E+04   -0.28929E-04   -0.36193E-04  6688   0.151E-02    0.173E-02
DAV:   3    -0.290915744970E+04    0.17542E-05   -0.63843E-06  4960   0.351E-03    0.110E-02
DAV:   4    -0.290915745014E+04   -0.43376E-06   -0.43565E-06  4864   0.365E-03    0.537E-03
DAV:   5    -0.290915745131E+04   -0.11757E-05   -0.29671E-06  4736   0.250E-03
  76 F= -.29442996E+04 E0= -.29442996E+04  d E =-.231053E-02  mag=    -0.0000
       N       E                     dE             d eps       ncg     rms          rms(c)
DAV:   1    -0.290915684143E+04    0.60871E-03   -0.88221E-01  5504   0.818E-01    0.297E-01
DAV:   2    -0.290915881071E+04   -0.19693E-02   -0.23086E-02  6528   0.120E-01    0.135E-01
DAV:   3    -0.290915866621E+04    0.14450E-03   -0.38887E-04  6720   0.203E-02    0.889E-02
DAV:   4    -0.290915861539E+04    0.50822E-04   -0.28556E-04  6528   0.196E-02    0.310E-02
DAV:   5    -0.290915862164E+04   -0.62550E-05   -0.77223E-05  6784   0.980E-03
  77 F= -.29443017E+04 E0= -.29443017E+04  d E =-.213519E-02  mag=     0.0000
       N       E                     dE             d eps       ncg     rms          rms(c)
DAV:   1    -0.290915790290E+04    0.71249E-03   -0.18063E-01  5568   0.370E-01    0.140E-01
DAV:   2    -0.290915831043E+04   -0.40753E-03   -0.47991E-03  6656   0.545E-02    0.602E-02
DAV:   3    -0.290915828236E+04    0.28064E-04   -0.80580E-05  6592   0.956E-03    0.393E-02
DAV:   4    -0.290915827426E+04    0.81041E-05   -0.58402E-05  6176   0.949E-03    0.137E-02
DAV:   5    -0.290915827621E+04   -0.19534E-05   -0.16192E-05  5024   0.503E-03
  78 F= -.29443018E+04 E0= -.29443018E+04  d E =-.222715E-02  mag=     0.0000
       N       E                     dE             d eps       ncg     rms          rms(c)
DAV:   1    -0.290915826420E+04    0.10059E-04   -0.48811E-01  5504   0.609E-01    0.221E-01
DAV:   2    -0.290915937577E+04   -0.11116E-02   -0.12865E-02  6528   0.881E-02    0.101E-01
DAV:   3    -0.290915931050E+04    0.65267E-04   -0.20923E-04  6624   0.140E-02    0.663E-02
DAV:   4    -0.290915929021E+04    0.20290E-04   -0.12633E-04  6560   0.127E-02    0.294E-02
DAV:   5    -0.290915929511E+04   -0.48979E-05   -0.39438E-05  5792   0.635E-03
  79 F= -.29443036E+04 E0= -.29443036E+04  d E =-.180161E-02  mag=     0.0000
       N       E                     dE             d eps       ncg     rms          rms(c)
DAV:   1    -0.290915792078E+04    0.13694E-02   -0.59527E-01  5504   0.673E-01    0.247E-01
DAV:   2    -0.290915927807E+04   -0.13573E-02   -0.15730E-02  6560   0.974E-02    0.110E-01
DAV:   3    -0.290915919862E+04    0.79447E-04   -0.25496E-04  6720   0.156E-02    0.731E-02
DAV:   4    -0.290915917293E+04    0.25690E-04   -0.16837E-04  6464   0.150E-02    0.285E-02
DAV:   5    -0.290915917897E+04   -0.60378E-05   -0.47596E-05  6272   0.728E-03
  80 F= -.29443043E+04 E0= -.29443043E+04  d E =-.255048E-02  mag=     0.0000
       N       E                     dE             d eps       ncg     rms          rms(c)
DAV:   1    -0.290915966783E+04   -0.49490E-03   -0.47716E-01  5504   0.612E-01    0.244E-01
DAV:   2    -0.290916080853E+04   -0.11407E-02   -0.13567E-02  6592   0.925E-02    0.106E-01
DAV:   3    -0.290916072476E+04    0.83769E-04   -0.24793E-04  6752   0.167E-02    0.694E-02
DAV:   4    -0.290916069202E+04    0.32739E-04   -0.15097E-04  6624   0.154E-02    0.283E-02
DAV:   5    -0.290916069600E+04   -0.39745E-05   -0.52795E-05  6752   0.879E-03
  81 F= -.29443067E+04 E0= -.29443067E+04  d E =-.234248E-02  mag=     0.0000
       N       E                     dE             d eps       ncg     rms          rms(c)
DAV:   1    -0.290916017582E+04    0.51620E-03   -0.21271E-01  5568   0.408E-01    0.165E-01
DAV:   2    -0.290916068344E+04   -0.50762E-03   -0.60637E-03  6624   0.619E-02    0.701E-02
DAV:   3    -0.290916064487E+04    0.38574E-04   -0.11027E-04  6784   0.115E-02    0.461E-02
DAV:   4    -0.290916062900E+04    0.15867E-04   -0.67465E-05  6368   0.111E-02    0.182E-02
DAV:   5    -0.290916063077E+04   -0.17749E-05   -0.25329E-05  5568   0.667E-03
  82 F= -.29443072E+04 E0= -.29443072E+04  d E =-.282867E-02  mag=     0.0000
       N       E                     dE             d eps       ncg     rms          rms(c)
DAV:   1    -0.290916082492E+04   -0.19592E-03   -0.52958E-01  5504   0.646E-01    0.247E-01
DAV:   2    -0.290916210422E+04   -0.12793E-02   -0.14885E-02  6560   0.961E-02    0.111E-01
DAV:   3    -0.290916202320E+04    0.81021E-04   -0.25769E-04  6720   0.163E-02    0.741E-02
DAV:   4    -0.290916199727E+04    0.25927E-04   -0.16499E-04  6560   0.147E-02    0.304E-02
DAV:   5    -0.290916200197E+04   -0.46954E-05   -0.41674E-05  5984   0.744E-03
  83 F= -.29443094E+04 E0= -.29443094E+04  d E =-.221831E-02  mag=     0.0000
       N       E                     dE             d eps       ncg     rms          rms(c)
DAV:   1    -0.290916130590E+04    0.69138E-03   -0.24702E-01  5504   0.441E-01    0.172E-01
DAV:   2    -0.290916190271E+04   -0.59681E-03   -0.69751E-03  6624   0.657E-02    0.754E-02
DAV:   3    -0.290916186566E+04    0.37043E-04   -0.12096E-04  6816   0.113E-02    0.502E-02
DAV:   4    -0.290916185418E+04    0.11479E-04   -0.78494E-05  6464   0.106E-02    0.196E-02
DAV:   5    -0.290916185669E+04   -0.25090E-05   -0.19549E-05  5280   0.566E-03
  84 F= -.29443098E+04 E0= -.29443098E+04  d E =-.265228E-02  mag=     0.0000
       N       E                     dE             d eps       ncg     rms          rms(c)
DAV:   1    -0.290916169456E+04    0.15962E-03   -0.66843E-01  5504   0.724E-01    0.273E-01
DAV:   2    -0.290916324279E+04   -0.15482E-02   -0.18272E-02  6560   0.108E-01    0.120E-01
DAV:   3    -0.290916313662E+04    0.10617E-03   -0.32887E-04  6816   0.190E-02    0.798E-02
DAV:   4    -0.290916309697E+04    0.39651E-04   -0.22288E-04  6528   0.187E-02    0.299E-02
DAV:   5    -0.290916310251E+04   -0.55407E-05   -0.70703E-05  6752   0.992E-03
  85 F= -.29443121E+04 E0= -.29443121E+04  d E =-.222253E-02  mag=     0.0000
       N       E                     dE             d eps       ncg     rms          rms(c)
DAV:   1    -0.290916254957E+04    0.54739E-03   -0.15657E-01  5568   0.350E-01    0.136E-01
DAV:   2    -0.290916291561E+04   -0.36603E-03   -0.43436E-03  6688   0.526E-02    0.577E-02
DAV:   3    -0.290916289156E+04    0.24050E-04   -0.78500E-05  6752   0.970E-03    0.383E-02
DAV:   4    -0.290916288317E+04    0.83911E-05   -0.52835E-05  6176   0.101E-02    0.141E-02
DAV:   5    -0.290916288492E+04   -0.17516E-05   -0.18360E-05  5120   0.570E-03
  86 F= -.29443123E+04 E0= -.29443123E+04  d E =-.247816E-02  mag=     0.0000
       N       E                     dE             d eps       ncg     rms          rms(c)
DAV:   1    -0.290916245448E+04    0.42868E-03   -0.76903E-01  5504   0.772E-01    0.282E-01
DAV:   2    -0.290916415137E+04   -0.16969E-02   -0.20100E-02  6528   0.114E-01    0.125E-01
DAV:   3    -0.290916401915E+04    0.13223E-03   -0.35923E-04  6752   0.205E-02    0.822E-02
DAV:   4    -0.290916397254E+04    0.46607E-04   -0.28007E-04  6592   0.207E-02    0.288E-02
DAV:   5    -0.290916397759E+04   -0.50559E-05   -0.81135E-05  6752   0.103E-02
  87 F= -.29443144E+04 E0= -.29443144E+04  d E =-.207760E-02  mag=    -0.0000
       N       E                     dE             d eps       ncg     rms          rms(c)
DAV:   1    -0.290916362883E+04    0.34371E-03   -0.70066E-02  5568   0.233E-01    0.907E-02
DAV:   2    -0.290916378558E+04   -0.15675E-03   -0.18769E-03  6624   0.349E-02    0.377E-02
DAV:   3    -0.290916377410E+04    0.11484E-04   -0.32440E-05  5504   0.687E-03    0.244E-02
DAV:   4    -0.290916377092E+04    0.31746E-05   -0.27503E-05  5568   0.756E-03    0.849E-03
DAV:   5    -0.290916377226E+04   -0.13419E-05   -0.10160E-05  4864   0.396E-03
  88 F= -.29443145E+04 E0= -.29443145E+04  d E =-.217018E-02  mag=     0.0000
       N       E                     dE             d eps       ncg     rms          rms(c)
DAV:   1    -0.290916312087E+04    0.65005E-03   -0.83797E-01  5504   0.806E-01    0.284E-01
DAV:   2    -0.290916491321E+04   -0.17923E-02   -0.21353E-02  6528   0.118E-01    0.128E-01
DAV:   3    -0.290916476955E+04    0.14367E-03   -0.37940E-04  6688   0.209E-02    0.838E-02
DAV:   4    -0.290916472265E+04    0.46898E-04   -0.28453E-04  6560   0.208E-02    0.298E-02
DAV:   5    -0.290916472854E+04   -0.58904E-05   -0.83924E-05  6720   0.103E-02
  89 F= -.29443164E+04 E0= -.29443164E+04  d E =-.193196E-02  mag=    -0.0000
       N       E                     dE             d eps       ncg     rms          rms(c)
DAV:   1    -0.290916462490E+04    0.97750E-04   -0.92500E-03  5760   0.847E-02    0.373E-02
DAV:   2    -0.290916464583E+04   -0.20930E-04   -0.25756E-04  6688   0.130E-02    0.146E-02
DAV:   3    -0.290916464517E+04    0.66403E-06   -0.44083E-06  4896   0.303E-03    0.935E-03
DAV:   4    -0.290916464614E+04   -0.97469E-06   -0.31808E-06  4768   0.296E-03    0.494E-03
DAV:   5    -0.290916464744E+04   -0.12985E-05   -0.18432E-06  4704   0.220E-03
  90 F= -.29443164E+04 E0= -.29443164E+04  d E =-.195358E-02  mag=    -0.0000
       N       E                     dE             d eps       ncg     rms          rms(c)
DAV:   1    -0.290916409966E+04    0.54648E-03   -0.72376E-01  5504   0.758E-01    0.270E-01
DAV:   2    -0.290916564138E+04   -0.15417E-02   -0.18563E-02  6592   0.112E-01    0.119E-01
DAV:   3    -0.290916550712E+04    0.13426E-03   -0.35635E-04  6624   0.211E-02    0.775E-02
DAV:   4    -0.290916545518E+04    0.51931E-04   -0.25080E-04  6592   0.213E-02    0.272E-02
DAV:   5    -0.290916545998E+04   -0.47950E-05   -0.93072E-05  6784   0.116E-02
  91 F= -.29443183E+04 E0= -.29443183E+04  d E =-.185387E-02  mag=     0.0000
       N       E                     dE             d eps       ncg     rms          rms(c)
DAV:   1    -0.290916526449E+04    0.19069E-03   -0.22717E-02  5696   0.134E-01    0.547E-02
DAV:   2    -0.290916531308E+04   -0.48595E-04   -0.61289E-04  6656   0.206E-02    0.214E-02
DAV:   3    -0.290916530880E+04    0.42818E-05   -0.11114E-05  4960   0.491E-03    0.137E-02
DAV:   4    -0.290916530756E+04    0.12468E-05   -0.85812E-06  4896   0.594E-03    0.518E-03
DAV:   5    -0.290916530858E+04   -0.10254E-05   -0.70242E-06  4736   0.344E-03
  92 F= -.29443183E+04 E0= -.29443183E+04  d E =-.188711E-02  mag=     0.0000
       N       E                     dE             d eps       ncg     rms          rms(c)
DAV:   1    -0.290916447754E+04    0.83002E-03   -0.75332E-01  5504   0.781E-01    0.270E-01
DAV:   2    -0.290916611900E+04   -0.16415E-02   -0.19461E-02  6592   0.115E-01    0.122E-01
DAV:   3    -0.290916599852E+04    0.12048E-03   -0.36150E-04  6784   0.196E-02    0.808E-02
DAV:   4    -0.290916595353E+04    0.44983E-04   -0.24854E-04  6528   0.186E-02    0.304E-02
DAV:   5    -0.290916595864E+04   -0.51054E-05   -0.66103E-05  6752   0.920E-03
  93 F= -.29443201E+04 E0= -.29443201E+04  d E =-.177796E-02  mag=     0.0000
       N       E                     dE             d eps       ncg     rms          rms(c)
DAV:   1    -0.290916576831E+04    0.18523E-03   -0.22807E-02  5632   0.136E-01    0.524E-02
DAV:   2    -0.290916581948E+04   -0.51168E-04   -0.61739E-04  6656   0.204E-02    0.212E-02
DAV:   3    -0.290916581676E+04    0.27144E-05   -0.10888E-05  5088   0.391E-03    0.141E-02
DAV:   4    -0.290916581707E+04   -0.30949E-06   -0.73075E-06  4768   0.367E-03    0.691E-03
DAV:   5    -0.290916581829E+04   -0.12210E-05   -0.35416E-06  4800   0.242E-03
  94 F= -.29443202E+04 E0= -.29443202E+04  d E =-.183429E-02  mag=     0.0000
       N       E                     dE             d eps       ncg     rms          rms(c)
DAV:   1    -0.290916522166E+04    0.59541E-03   -0.74255E-01  5504   0.781E-01    0.277E-01
DAV:   2    -0.290916685360E+04   -0.16319E-02   -0.19447E-02  6528   0.116E-01    0.122E-01
DAV:   3    -0.290916672315E+04    0.13045E-03   -0.36808E-04  6752   0.215E-02    0.811E-02
DAV:   4    -0.290916666753E+04    0.55620E-04   -0.24961E-04  6592   0.215E-02    0.307E-02
DAV:   5    -0.290916667210E+04   -0.45694E-05   -0.94736E-05  6784   0.117E-02
  95 F= -.29443220E+04 E0= -.29443220E+04  d E =-.181704E-02  mag=     0.0000
       N       E                     dE             d eps       ncg     rms          rms(c)
DAV:   1    -0.290916651049E+04    0.15704E-03   -0.17535E-02  5760   0.120E-01    0.494E-02
DAV:   2    -0.290916654903E+04   -0.38540E-04   -0.48730E-04  6656   0.186E-02    0.192E-02
DAV:   3    -0.290916654597E+04    0.30614E-05   -0.90129E-06  4896   0.454E-03    0.126E-02
DAV:   4    -0.290916654527E+04    0.69680E-06   -0.62353E-06  4800   0.511E-03    0.582E-03
DAV:   5    -0.290916654612E+04   -0.84977E-06   -0.54780E-06  4800   0.337E-03
  96 F= -.29443220E+04 E0= -.29443220E+04  d E =-.183921E-02  mag=     0.0000
       N       E                     dE             d eps       ncg     rms          rms(c)
DAV:   1    -0.290916626129E+04    0.28399E-03   -0.52873E-01  5504   0.655E-01    0.217E-01
DAV:   2    -0.290916742257E+04   -0.11613E-02   -0.13422E-02  6560   0.947E-02    0.998E-02
DAV:   3    -0.290916734706E+04    0.75507E-04   -0.22092E-04  6720   0.154E-02    0.665E-02
DAV:   4    -0.290916732228E+04    0.24782E-04   -0.18523E-04  6496   0.165E-02    0.241E-02
DAV:   5    -0.290916732599E+04   -0.37045E-05   -0.48069E-05  6592   0.757E-03
  97 F= -.29443236E+04 E0= -.29443236E+04  d E =-.160943E-02  mag=     0.0000
       N       E                     dE             d eps       ncg     rms          rms(c)
DAV:   1    -0.290916665838E+04    0.66390E-03   -0.21793E-01  5568   0.420E-01    0.143E-01
DAV:   2    -0.290916713993E+04   -0.48155E-03   -0.55944E-03  6560   0.611E-02    0.637E-02
DAV:   3    -0.290916710991E+04    0.30018E-04   -0.92507E-05  6784   0.103E-02    0.423E-02
DAV:   4    -0.290916710067E+04    0.92430E-05   -0.76609E-05  6272   0.112E-02    0.155E-02
DAV:   5    -0.290916710230E+04   -0.16333E-05   -0.20375E-05  5472   0.538E-03
  98 F= -.29443239E+04 E0= -.29443239E+04  d E =-.191909E-02  mag=     0.0000
       N       E                     dE             d eps       ncg     rms          rms(c)
DAV:   1    -0.290916686859E+04    0.23208E-03   -0.57951E-01  5504   0.687E-01    0.225E-01
DAV:   2    -0.290916809464E+04   -0.12261E-02   -0.14572E-02  6560   0.101E-01    0.101E-01
DAV:   3    -0.290916799361E+04    0.10103E-03   -0.27259E-04  6720   0.187E-02    0.651E-02
DAV:   4    -0.290916795465E+04    0.38967E-04   -0.20199E-04  6592   0.191E-02    0.220E-02
DAV:   5    -0.290916795839E+04   -0.37445E-05   -0.70669E-05  6752   0.991E-03
  99 F= -.29443257E+04 E0= -.29443257E+04  d E =-.176318E-02  mag=     0.0000
       N       E                     dE             d eps       ncg     rms          rms(c)
DAV:   1    -0.290916766365E+04    0.29099E-03   -0.60228E-02  5568   0.221E-01    0.774E-02
DAV:   2    -0.290916779202E+04   -0.12837E-03   -0.15513E-03  6656   0.331E-02    0.326E-02
DAV:   3    -0.290916778133E+04    0.10696E-04   -0.28663E-05  5760   0.687E-03    0.208E-02
DAV:   4    -0.290916777713E+04    0.42004E-05   -0.22651E-05  5632   0.793E-03    0.671E-03
DAV:   5    -0.290916777816E+04   -0.10314E-05   -0.11260E-05  4864   0.429E-03
 100 F= -.29443258E+04 E0= -.29443258E+04  d E =-.187564E-02  mag=     0.0000
       N       E                     dE             d eps       ncg     rms          rms(c)
DAV:   1    -0.290916746601E+04    0.31112E-03   -0.57614E-01  5504   0.685E-01    0.212E-01
DAV:   2    -0.290916865430E+04   -0.11883E-02   -0.13971E-02  6528   0.989E-02    0.100E-01
DAV:   3    -0.290916856295E+04    0.91352E-04   -0.25587E-04  6752   0.176E-02    0.636E-02
DAV:   4    -0.290916853521E+04    0.27739E-04   -0.18778E-04  6528   0.167E-02    0.263E-02
DAV:   5    -0.290916853822E+04   -0.30043E-05   -0.52437E-05  6752   0.799E-03
 101 F= -.29443275E+04 E0= -.29443275E+04  d E =-.171644E-02  mag=     0.0000
       N       E                     dE             d eps       ncg     rms          rms(c)
DAV:   1    -0.290916812340E+04    0.41182E-03   -0.91077E-02  5568   0.272E-01    0.891E-02
DAV:   2    -0.290916831353E+04   -0.19014E-03   -0.22556E-03  6592   0.397E-02    0.398E-02
DAV:   3    -0.290916829943E+04    0.14100E-04   -0.41024E-05  6240   0.756E-03    0.253E-02
DAV:   4    -0.290916829608E+04    0.33554E-05   -0.35814E-05  6080   0.805E-03    0.860E-03
DAV:   5    -0.290916829706E+04   -0.98528E-06   -0.98180E-06  4832   0.391E-03
 102 F= -.29443276E+04 E0= -.29443276E+04  d E =-.185583E-02  mag=     0.0000
       N       E                     dE             d eps       ncg     rms          rms(c)
DAV:   1    -0.290916781653E+04    0.47955E-03   -0.59526E-01  5504   0.699E-01    0.219E-01
DAV:   2    -0.290916905386E+04   -0.12373E-02   -0.14530E-02  6560   0.101E-01    0.102E-01
DAV:   3    -0.290916895614E+04    0.97715E-04   -0.25113E-04  6752   0.176E-02    0.646E-02
DAV:   4    -0.290916892915E+04    0.26995E-04   -0.19754E-04  6464   0.174E-02    0.271E-02
DAV:   5    -0.290916893282E+04   -0.36667E-05   -0.59350E-05  6752   0.842E-03
 103 F= -.29443292E+04 E0= -.29443292E+04  d E =-.157106E-02  mag=    -0.0000
       N       E                     dE             d eps       ncg     rms          rms(c)
DAV:   1    -0.290916865597E+04    0.27318E-03   -0.49038E-02  5568   0.200E-01    0.682E-02
DAV:   2    -0.290916876053E+04   -0.10456E-03   -0.12375E-03  6688   0.295E-02    0.295E-02
DAV:   3    -0.290916875293E+04    0.75999E-05   -0.20095E-05  5344   0.567E-03    0.186E-02
DAV:   4    -0.290916875196E+04    0.96834E-06   -0.22148E-05  5472   0.673E-03    0.590E-03
DAV:   5    -0.290916875297E+04   -0.10051E-05   -0.74463E-06  4864   0.319E-03
 104 F= -.29443293E+04 E0= -.29443293E+04  d E =-.165982E-02  mag=    -0.0000
       N       E                     dE             d eps       ncg     rms          rms(c)
DAV:   1    -0.290916854465E+04    0.20731E-03   -0.48324E-01  5504   0.636E-01    0.201E-01
DAV:   2    -0.290916956482E+04   -0.10202E-02   -0.12058E-02  6560   0.928E-02    0.914E-02
DAV:   3    -0.290916947932E+04    0.85503E-04   -0.22217E-04  6656   0.169E-02    0.586E-02
DAV:   4    -0.290916944914E+04    0.30175E-04   -0.17327E-04  6560   0.171E-02    0.206E-02
DAV:   5    -0.290916945222E+04   -0.30744E-05   -0.54809E-05  6816   0.853E-03
 105 F= -.29443308E+04 E0= -.29443308E+04  d E =-.146102E-02  mag=    -0.0000
       N       E                     dE             d eps       ncg     rms          rms(c)
DAV:   1    -0.290916914747E+04    0.30167E-03   -0.60680E-02  5568   0.225E-01    0.759E-02
DAV:   2    -0.290916927640E+04   -0.12893E-03   -0.15477E-03  6624   0.333E-02    0.324E-02
DAV:   3    -0.290916926537E+04    0.11031E-04   -0.27945E-05  5696   0.673E-03    0.206E-02
DAV:   4    -0.290916926151E+04    0.38603E-05   -0.25251E-05  5856   0.775E-03    0.671E-03
DAV:   5    -0.290916926231E+04   -0.80076E-06   -0.10140E-05  4816   0.397E-03
 106 F= -.29443308E+04 E0= -.29443308E+04  d E =-.154140E-02  mag=    -0.0000
       N       E                     dE             d eps       ncg     rms          rms(c)
DAV:   1    -0.290916883255E+04    0.42896E-03   -0.47242E-01  5504   0.630E-01    0.200E-01
DAV:   2    -0.290916984582E+04   -0.10133E-02   -0.11884E-02  6560   0.913E-02    0.910E-02
DAV:   3    -0.290916977107E+04    0.74750E-04   -0.20956E-04  6816   0.156E-02    0.594E-02
DAV:   4    -0.290916974959E+04    0.21476E-04   -0.16353E-04  6528   0.157E-02    0.206E-02
DAV:   5    -0.290916975281E+04   -0.32209E-05   -0.42238E-05  6464   0.741E-03
 107 F= -.29443322E+04 E0= -.29443322E+04  d E =-.135806E-02  mag=    -0.0000
       N       E                     dE             d eps       ncg     rms          rms(c)
DAV:   1    -0.290916939630E+04    0.35329E-03   -0.72116E-02  5568   0.246E-01    0.819E-02
DAV:   2    -0.290916955262E+04   -0.15633E-03   -0.18437E-03  6752   0.360E-02    0.352E-02
DAV:   3    -0.290916954186E+04    0.10768E-04   -0.31746E-05  5984   0.644E-03    0.228E-02
DAV:   4    -0.290916953952E+04    0.23401E-05   -0.26891E-05  5760   0.670E-03    0.816E-03
DAV:   5    -0.290916954046E+04   -0.94878E-06   -0.74292E-06  4896   0.327E-03
 108 F= -.29443323E+04 E0= -.29443323E+04  d E =-.148521E-02  mag=    -0.0000
       N       E                     dE             d eps       ncg     rms          rms(c)
DAV:   1    -0.290916918519E+04    0.35432E-03   -0.47431E-01  5504   0.631E-01    0.204E-01
DAV:   2    -0.290917020355E+04   -0.10184E-02   -0.12013E-02  6592   0.920E-02    0.926E-02
DAV:   3    -0.290917012633E+04    0.77223E-04   -0.21682E-04  6656   0.161E-02    0.599E-02
DAV:   4    -0.290917010493E+04    0.21402E-04   -0.14803E-04  6592   0.156E-02    0.237E-02
DAV:   5    -0.290917010872E+04   -0.37889E-05   -0.51288E-05  6624   0.813E-03
 109 F= -.29443338E+04 E0= -.29443338E+04  d E =-.149086E-02  mag=    -0.0000
       N       E                     dE             d eps       ncg     rms          rms(c)
DAV:   1    -0.290916976556E+04    0.33937E-03   -0.70349E-02  5568   0.243E-01    0.829E-02
DAV:   2    -0.290916991789E+04   -0.15233E-03   -0.18181E-03  6656   0.358E-02    0.354E-02
DAV:   3    -0.290916990665E+04    0.11241E-04   -0.31992E-05  5952   0.678E-03    0.228E-02
DAV:   4    -0.290916990374E+04    0.29084E-05   -0.25539E-05  5792   0.760E-03    0.739E-03
DAV:   5    -0.290916990473E+04   -0.99494E-06   -0.99568E-06  4896   0.404E-03
 110 F= -.29443340E+04 E0= -.29443340E+04  d E =-.164226E-02  mag=    -0.0000
       N       E                     dE             d eps       ncg     rms          rms(c)
DAV:   1    -0.290916954678E+04    0.35696E-03   -0.51135E-01  5504   0.652E-01    0.199E-01
DAV:   2    -0.290917063520E+04   -0.10884E-02   -0.12711E-02  6560   0.943E-02    0.942E-02
DAV:   3    -0.290917055892E+04    0.76279E-04   -0.22321E-04  6752   0.158E-02    0.607E-02
DAV:   4    -0.290917053489E+04    0.24032E-04   -0.15999E-04  6656   0.155E-02    0.239E-02
DAV:   5    -0.290917053807E+04   -0.31773E-05   -0.48868E-05  6656   0.754E-03
 111 F= -.29443355E+04 E0= -.29443355E+04  d E =-.156059E-02  mag=    -0.0000
       N       E                     dE             d eps       ncg     rms          rms(c)
DAV:   1    -0.290917013187E+04    0.40302E-03   -0.90422E-02  5568   0.274E-01    0.879E-02
DAV:   2    -0.290917032584E+04   -0.19397E-03   -0.22908E-03  6656   0.401E-02    0.394E-02
DAV:   3    -0.290917031288E+04    0.12951E-04   -0.40249E-05  6272   0.704E-03    0.253E-02
DAV:   4    -0.290917030939E+04    0.34944E-05   -0.32986E-05  6016   0.756E-03    0.828E-03
DAV:   5    -0.290917031044E+04   -0.10496E-05   -0.91967E-06  4928   0.371E-03
 112 F= -.29443357E+04 E0= -.29443357E+04  d E =-.172297E-02  mag=    -0.0000
       N       E                     dE             d eps       ncg     rms          rms(c)
DAV:   1    -0.290917030326E+04    0.61329E-05   -0.39247E-01  5504   0.568E-01    0.172E-01
DAV:   2    -0.290917113594E+04   -0.83269E-03   -0.96716E-03  6560   0.817E-02    0.805E-02
DAV:   3    -0.290917108021E+04    0.55730E-04   -0.16014E-04  6720   0.135E-02    0.523E-02
DAV:   4    -0.290917106356E+04    0.16658E-04   -0.12943E-04  6560   0.142E-02    0.179E-02
DAV:   5    -0.290917106664E+04   -0.30856E-05   -0.37980E-05  6336   0.681E-03
 113 F= -.29443372E+04 E0= -.29443372E+04  d E =-.155011E-02  mag=    -0.0000
       N       E                     dE             d eps       ncg     rms          rms(c)
DAV:   1    -0.290917021321E+04    0.85035E-03   -0.33644E-01  5504   0.526E-01    0.162E-01
DAV:   2    -0.290917092865E+04   -0.71544E-03   -0.83365E-03  6592   0.759E-02    0.743E-02
DAV:   3    -0.290917088122E+04    0.47430E-04   -0.13889E-04  6816   0.128E-02    0.482E-02
DAV:   4    -0.290917086675E+04    0.14470E-04   -0.11383E-04  6496   0.139E-02    0.155E-02
DAV:   5    -0.290917086930E+04   -0.25482E-05   -0.34746E-05  6208   0.678E-03
 114 F= -.29443378E+04 E0= -.29443378E+04  d E =-.208818E-02  mag=    -0.0000
       N       E                     dE             d eps       ncg     rms          rms(c)
DAV:   1    -0.290917086796E+04   -0.12093E-05   -0.48658E-01  5504   0.632E-01    0.187E-01
DAV:   2    -0.290917189656E+04   -0.10286E-02   -0.11959E-02  6528   0.907E-02    0.885E-02
DAV:   3    -0.290917183281E+04    0.63745E-04   -0.20248E-04  6688   0.151E-02    0.579E-02
DAV:   4    -0.290917181542E+04    0.17390E-04   -0.15576E-04  6528   0.154E-02    0.189E-02
DAV:   5    -0.290917181912E+04   -0.37015E-05   -0.41837E-05  6432   0.728E-03
 115 F= -.29443395E+04 E0= -.29443395E+04  d E =-.174488E-02  mag=    -0.0000
       N       E                     dE             d eps       ncg     rms          rms(c)
DAV:   1    -0.290917110325E+04    0.71217E-03   -0.25599E-01  5568   0.458E-01    0.138E-01
DAV:   2    -0.290917164564E+04   -0.54239E-03   -0.63155E-03  6560   0.659E-02    0.638E-02
DAV:   3    -0.290917161214E+04    0.33498E-04   -0.10655E-04  6784   0.112E-02    0.416E-02
DAV:   4    -0.290917160264E+04    0.95023E-05   -0.81527E-05  6336   0.117E-02    0.138E-02
DAV:   5    -0.290917160460E+04   -0.19607E-05   -0.23486E-05  5536   0.578E-03
 116 F= -.29443399E+04 E0= -.29443399E+04  d E =-.210757E-02  mag=    -0.0000
       N       E                     dE             d eps       ncg     rms          rms(c)
DAV:   1    -0.290917169537E+04   -0.92727E-04   -0.41834E-01  5504   0.589E-01    0.183E-01
[...]
 137 F= -.29443518E+04 E0= -.29443518E+04  d E =-.817680E-03  mag=    -0.0000
       N       E                     dE             d eps       ncg     rms          rms(c)
DAV:   1    -0.290917635127E+04    0.15833E-03   -0.49094E-02  5568   0.205E-01    0.574E-02
DAV:   2    -0.290917645138E+04   -0.10010E-03   -0.11708E-03  6624   0.294E-02    0.250E-02
DAV:   3    -0.290917644411E+04    0.72650E-05   -0.19078E-05  5408   0.521E-03    0.159E-02
DAV:   4    -0.290917644219E+04    0.19257E-05   -0.20284E-05  5344   0.612E-03    0.483E-03
DAV:   5    -0.290917644272E+04   -0.53336E-06   -0.61319E-06  4800   0.272E-03
 138 F= -.29443519E+04 E0= -.29443519E+04  d E =-.904789E-03  mag=    -0.0000
       N       E                     dE             d eps       ncg     rms          rms(c)
DAV:   1    -0.290917639958E+04    0.42603E-04   -0.26388E-01  5504   0.474E-01    0.124E-01
DAV:   2    -0.290917692904E+04   -0.52946E-03   -0.61203E-03  6496   0.672E-02    0.580E-02
DAV:   3    -0.290917689154E+04    0.37503E-04   -0.10532E-04  6752   0.114E-02    0.365E-02
DAV:   4    -0.290917687967E+04    0.11870E-04   -0.79693E-05  6528   0.117E-02    0.145E-02
DAV:   5    -0.290917688110E+04   -0.14370E-05   -0.24641E-05  5760   0.545E-03
 139 F= -.29443527E+04 E0= -.29443527E+04  d E =-.798829E-03  mag=    -0.0000
       N       E                     dE             d eps       ncg     rms          rms(c)
DAV:   1    -0.290917662317E+04    0.25650E-03   -0.93792E-02  5568   0.282E-01    0.771E-02
DAV:   2    -0.290917681150E+04   -0.18832E-03   -0.22013E-03  6592   0.403E-02    0.344E-02
DAV:   3    -0.290917679806E+04    0.13435E-04   -0.38117E-05  6304   0.721E-03    0.216E-02
DAV:   4    -0.290917679389E+04    0.41699E-05   -0.32478E-05  6112   0.804E-03    0.759E-03
DAV:   5    -0.290917679457E+04   -0.67923E-06   -0.10476E-05  4896   0.372E-03
 140 F= -.29443528E+04 E0= -.29443528E+04  d E =-.927226E-03  mag=    -0.0000
       N       E                     dE             d eps       ncg     rms          rms(c)
DAV:   1    -0.290917680401E+04   -0.10122E-04   -0.24290E-01  5504   0.455E-01    0.117E-01
DAV:   2    -0.290917729050E+04   -0.48648E-03   -0.56148E-03  6464   0.644E-02    0.547E-02
DAV:   3    -0.290917725883E+04    0.31668E-04   -0.97260E-05  6752   0.108E-02    0.346E-02
DAV:   4    -0.290917725036E+04    0.84640E-05   -0.72622E-05  6464   0.110E-02    0.123E-02
DAV:   5    -0.290917725215E+04   -0.17870E-05   -0.20313E-05  5376   0.505E-03
 141 F= -.29443536E+04 E0= -.29443536E+04  d E =-.830687E-03  mag=    -0.0000
       N       E                     dE             d eps       ncg     rms          rms(c)
DAV:   1    -0.290917693631E+04    0.31406E-03   -0.13445E-01  5504   0.338E-01    0.895E-02
DAV:   2    -0.290917720618E+04   -0.26987E-03   -0.31269E-03  6592   0.481E-02    0.404E-02
DAV:   3    -0.290917718879E+04    0.17385E-04   -0.54369E-05  6720   0.823E-03    0.255E-02
DAV:   4    -0.290917718435E+04    0.44435E-05   -0.41881E-05  6208   0.865E-03    0.866E-03
DAV:   5    -0.290917718532E+04   -0.96497E-06   -0.12098E-05  4992   0.405E-03
 142 F= -.29443538E+04 E0= -.29443538E+04  d E =-.104153E-02  mag=    -0.0000
       N       E                     dE             d eps       ncg     rms          rms(c)
DAV:   1    -0.290917717547E+04    0.88782E-05   -0.26504E-01  5504   0.476E-01    0.126E-01
DAV:   2    -0.290917770702E+04   -0.53155E-03   -0.61691E-03  6528   0.679E-02    0.577E-02
DAV:   3    -0.290917766918E+04    0.37834E-04   -0.10812E-04  6720   0.117E-02    0.364E-02
DAV:   4    -0.290917765763E+04    0.11557E-04   -0.84790E-05  6496   0.121E-02    0.112E-02
DAV:   5    -0.290917765909E+04   -0.14666E-05   -0.24268E-05  5600   0.571E-03
 143 F= -.29443547E+04 E0= -.29443547E+04  d E =-.867019E-03  mag=    -0.0000
       N       E                     dE             d eps       ncg     rms          rms(c)
DAV:   1    -0.290917750178E+04    0.15585E-03   -0.47348E-02  5568   0.201E-01    0.558E-02
DAV:   2    -0.290917759741E+04   -0.95628E-04   -0.11171E-03  6624   0.289E-02    0.241E-02
DAV:   3    -0.290917759047E+04    0.69360E-05   -0.18241E-05  5408   0.533E-03    0.151E-02
DAV:   4    -0.290917758827E+04    0.22053E-05   -0.16607E-05  4960   0.622E-03    0.424E-03
DAV:   5    -0.290917758893E+04   -0.66037E-06   -0.73003E-06  4800   0.305E-03
 144 F= -.29443548E+04 E0= -.29443548E+04  d E =-.963128E-03  mag=    -0.0000
       N       E                     dE             d eps       ncg     rms          rms(c)
DAV:   1    -0.290917761500E+04   -0.26738E-04   -0.23470E-01  5504   0.450E-01    0.118E-01
DAV:   2    -0.290917808027E+04   -0.46526E-03   -0.54203E-03  6528   0.638E-02    0.550E-02
DAV:   3    -0.290917804492E+04    0.35349E-04   -0.95175E-05  6784   0.109E-02    0.346E-02
DAV:   4    -0.290917803523E+04    0.96825E-05   -0.75645E-05  6560   0.109E-02    0.111E-02
DAV:   5    -0.290917803674E+04   -0.15046E-05   -0.19954E-05  5344   0.509E-03
 145 F= -.29443556E+04 E0= -.29443556E+04  d E =-.817905E-03  mag=    -0.0000
       N       E                     dE             d eps       ncg     rms          rms(c)
DAV:   1    -0.290917785202E+04    0.18322E-03   -0.65594E-02  5568   0.238E-01    0.649E-02
DAV:   2    -0.290917798284E+04   -0.13082E-03   -0.15297E-03  6560   0.339E-02    0.288E-02
DAV:   3    -0.290917797285E+04    0.99827E-05   -0.25164E-05  5568   0.598E-03    0.180E-02
DAV:   4    -0.290917797049E+04    0.23617E-05   -0.25474E-05  5728   0.665E-03    0.529E-03
DAV:   5    -0.290917797121E+04   -0.72265E-06   -0.72366E-06  4768   0.306E-03
 146 F= -.29443557E+04 E0= -.29443557E+04  d E =-.948067E-03  mag=    -0.0000
       N       E                     dE             d eps       ncg     rms          rms(c)
DAV:   1    -0.290917801309E+04   -0.42599E-04   -0.27311E-01  5504   0.486E-01    0.130E-01
DAV:   2    -0.290917855165E+04   -0.53856E-03   -0.62629E-03  6496   0.686E-02    0.593E-02
DAV:   3    -0.290917851046E+04    0.41189E-04   -0.10759E-04  6688   0.118E-02    0.369E-02
DAV:   4    -0.290917850004E+04    0.10425E-04   -0.84942E-05  6592   0.119E-02    0.132E-02
DAV:   5    -0.290917850197E+04   -0.19335E-05   -0.25231E-05  5664   0.552E-03
 147 F= -.29443566E+04 E0= -.29443566E+04  d E =-.819407E-03  mag=    -0.0000
       N       E                     dE             d eps       ncg     rms          rms(c)
DAV:   1    -0.290917842150E+04    0.78542E-04   -0.29897E-02  5568   0.161E-01    0.467E-02
DAV:   2    -0.290917848114E+04   -0.59644E-04   -0.70061E-04  6624   0.230E-02    0.195E-02
DAV:   3    -0.290917847667E+04    0.44667E-05   -0.10817E-05  4992   0.432E-03    0.120E-02
DAV:   4    -0.290917847591E+04    0.76048E-06   -0.12452E-05  4768   0.533E-03    0.338E-03
DAV:   5    -0.290917847652E+04   -0.60792E-06   -0.51229E-06  4768   0.243E-03
 148 F= -.29443566E+04 E0= -.29443566E+04  d E =-.889454E-03  mag=    -0.0000
       N       E                     dE             d eps       ncg     rms          rms(c)
DAV:   1    -0.290917850321E+04   -0.27297E-04   -0.30354E-01  5504   0.513E-01    0.131E-01
DAV:   2    -0.290917910170E+04   -0.59849E-03   -0.69470E-03  6528   0.724E-02    0.627E-02
DAV:   3    -0.290917905818E+04    0.43519E-04   -0.12189E-04  6784   0.125E-02    0.390E-02
DAV:   4    -0.290917904566E+04    0.12526E-04   -0.90993E-05  6496   0.123E-02    0.146E-02
DAV:   5    -0.290917904740E+04   -0.17448E-05   -0.26339E-05  5728   0.576E-03
 149 F= -.29443574E+04 E0= -.29443574E+04  d E =-.801989E-03  mag=    -0.0000
       N       E                     dE             d eps       ncg     rms          rms(c)
DAV:   1    -0.290917900815E+04    0.37510E-04   -0.11417E-02  5632   0.993E-02    0.296E-02
DAV:   2    -0.290917903121E+04   -0.23063E-04   -0.27348E-04  6720   0.144E-02    0.123E-02
DAV:   3    -0.290917902968E+04    0.15316E-05   -0.42758E-06  4736   0.289E-03    0.758E-03
DAV:   4    -0.290917902963E+04    0.44238E-07   -0.51656E-06  4752   0.364E-03    0.249E-03
DAV:   5    -0.290917902996E+04   -0.32445E-06   -0.23769E-06  4736   0.165E-03
 150 F= -.29443575E+04 E0= -.29443575E+04  d E =-.829356E-03  mag=    -0.0000
       N       E                     dE             d eps       ncg     rms          rms(c)
DAV:   1    -0.290917897948E+04    0.50156E-04   -0.29082E-01  5504   0.501E-01    0.132E-01
DAV:   2    -0.290917954183E+04   -0.56235E-03   -0.66594E-03  6592   0.713E-02    0.603E-02
DAV:   3    -0.290917949682E+04    0.45005E-04   -0.12708E-04  6688   0.126E-02    0.376E-02
DAV:   4    -0.290917948397E+04    0.12859E-04   -0.88227E-05  6560   0.121E-02    0.128E-02
DAV:   5    -0.290917948559E+04   -0.16256E-05   -0.25360E-05  5568   0.591E-03
 151 F= -.29443582E+04 E0= -.29443582E+04  d E =-.723624E-03  mag=    -0.0000
       N       E                     dE             d eps       ncg     rms          rms(c)
DAV:   1    -0.290917943025E+04    0.53717E-04   -0.13980E-02  5632   0.110E-01    0.330E-02
DAV:   2    -0.290917945757E+04   -0.27323E-04   -0.33262E-04  6656   0.160E-02    0.132E-02
DAV:   3    -0.290917945538E+04    0.21865E-05   -0.56813E-06  4768   0.326E-03    0.811E-03
DAV:   4    -0.290917945491E+04    0.47777E-06   -0.55278E-06  4704   0.390E-03    0.266E-03
DAV:   5    -0.290917945525E+04   -0.34436E-06   -0.29556E-06  4672   0.190E-03
 152 F= -.29443582E+04 E0= -.29443582E+04  d E =-.752024E-03  mag=     0.0000
       N       E                     dE             d eps       ncg     rms          rms(c)
DAV:   1    -0.290917939095E+04    0.63958E-04   -0.27316E-01  5504   0.485E-01    0.120E-01
DAV:   2    -0.290917991817E+04   -0.52722E-03   -0.61495E-03  6560   0.682E-02    0.564E-02
DAV:   3    -0.290917988062E+04    0.37553E-04   -0.11004E-04  6688   0.113E-02    0.357E-02
DAV:   4    -0.290917986971E+04    0.10906E-04   -0.84875E-05  6624   0.113E-02    0.112E-02
DAV:   5    -0.290917987113E+04   -0.14194E-05   -0.20623E-05  5568   0.518E-03
 153 F= -.29443589E+04 E0= -.29443589E+04  d E =-.721689E-03  mag=     0.0000
       N       E                     dE             d eps       ncg     rms          rms(c)
DAV:   1    -0.290917971562E+04    0.15410E-03   -0.59061E-02  5568   0.225E-01    0.584E-02
DAV:   2    -0.290917983096E+04   -0.11535E-03   -0.13499E-03  6688   0.319E-02    0.259E-02
DAV:   3    -0.290917982301E+04    0.79528E-05   -0.22507E-05  5568   0.543E-03    0.163E-02
DAV:   4    -0.290917982121E+04    0.18053E-05   -0.21323E-05  5312   0.595E-03    0.483E-03
DAV:   5    -0.290917982184E+04   -0.63796E-06   -0.61132E-06  4768   0.274E-03
 154 F= -.29443590E+04 E0= -.29443590E+04  d E =-.814641E-03  mag=     0.0000
       N       E                     dE             d eps       ncg     rms          rms(c)
DAV:   1    -0.290917961729E+04    0.20391E-03   -0.31493E-01  5504   0.522E-01    0.139E-01
DAV:   2    -0.290918023467E+04   -0.61738E-03   -0.72535E-03  6528   0.742E-02    0.621E-02
DAV:   3    -0.290918018511E+04    0.49565E-04   -0.13048E-04  6688   0.130E-02    0.387E-02
DAV:   4    -0.290918017088E+04    0.14228E-04   -0.10581E-04  6624   0.135E-02    0.126E-02
DAV:   5    -0.290918017295E+04   -0.20642E-05   -0.30886E-05  5792   0.624E-03
 155 F= -.29443597E+04 E0= -.29443597E+04  d E =-.687407E-03  mag=     0.0000
       N       E                     dE             d eps       ncg     rms          rms(c)
DAV:   1    -0.290918015479E+04    0.16090E-04   -0.10068E-03  6400   0.295E-02    0.129E-02
DAV:   2    -0.290918015695E+04   -0.21589E-05   -0.27280E-05  5664   0.476E-03    0.481E-03
DAV:   3    -0.290918015719E+04   -0.23656E-06   -0.11166E-06  4704   0.165E-03    0.287E-03
DAV:   4    -0.290918015763E+04   -0.43947E-06   -0.46447E-07  4672   0.161E-03    0.147E-03
DAV:   5    -0.290918015804E+04   -0.41758E-06   -0.44658E-07  4736   0.116E-03
 156 F= -.29443597E+04 E0= -.29443597E+04  d E =-.691495E-03  mag=     0.0000
       N       E                     dE             d eps       ncg     rms          rms(c)
DAV:   1    -0.290918022259E+04   -0.64962E-04   -0.18656E-01  5504   0.402E-01    0.111E-01
DAV:   2    -0.290918059148E+04   -0.36890E-03   -0.43418E-03  6560   0.574E-02    0.499E-02
DAV:   3    -0.290918056109E+04    0.30399E-04   -0.79754E-05  6784   0.102E-02    0.308E-02
DAV:   4    -0.290918055327E+04    0.78146E-05   -0.65330E-05  6464   0.101E-02    0.115E-02
DAV:   5    -0.290918055421E+04   -0.93732E-06   -0.15904E-05  5312   0.453E-03
 157 F= -.29443603E+04 E0= -.29443603E+04  d E =-.599010E-03  mag=     0.0000
       N       E                     dE             d eps       ncg     rms          rms(c)
DAV:   1    -0.290918052201E+04    0.31261E-04   -0.75612E-03  5632   0.809E-02    0.258E-02
DAV:   2    -0.290918053752E+04   -0.15514E-04   -0.18454E-04  6720   0.119E-02    0.103E-02
DAV:   3    -0.290918053643E+04    0.10983E-05   -0.30446E-06  4672   0.243E-03    0.628E-03
DAV:   4    -0.290918053657E+04   -0.14144E-06   -0.40549E-06  4640   0.300E-03    0.210E-03
DAV:   5    -0.290918053682E+04   -0.25472E-06   -0.15536E-06  4768   0.134E-03
 158 F= -.29443603E+04 E0= -.29443603E+04  d E =-.622448E-03  mag=     0.0000
       N       E                     dE             d eps       ncg     rms          rms(c)
DAV:   1    -0.290918057539E+04   -0.38820E-04   -0.19953E-01  5504   0.417E-01    0.113E-01
DAV:   2    -0.290918096530E+04   -0.38991E-03   -0.46198E-03  6496   0.596E-02    0.520E-02
DAV:   3    -0.290918093194E+04    0.33357E-04   -0.85620E-05  6688   0.107E-02    0.320E-02
DAV:   4    -0.290918092324E+04    0.87019E-05   -0.69135E-05  6560   0.104E-02    0.126E-02
DAV:   5    -0.290918092413E+04   -0.89331E-06   -0.17134E-05  5248   0.479E-03
 159 F= -.29443609E+04 E0= -.29443609E+04  d E =-.562296E-03  mag=    -0.0000
       N       E                     dE             d eps       ncg     rms          rms(c)
DAV:   1    -0.290918090873E+04    0.14509E-04   -0.23360E-03  5856   0.451E-02    0.160E-02
DAV:   2    -0.290918091366E+04   -0.49299E-05   -0.59982E-05  6720   0.685E-03    0.626E-03
DAV:   3    -0.290918091343E+04    0.22410E-06   -0.10281E-06  4608   0.165E-03    0.388E-03
DAV:   4    -0.290918091383E+04   -0.39715E-06   -0.14238E-06  4672   0.199E-03    0.175E-03
DAV:   5    -0.290918091407E+04   -0.24197E-06   -0.68391E-07  4736   0.949E-04
 160 F= -.29443609E+04 E0= -.29443609E+04  d E =-.571142E-03  mag=    -0.0000
       N       E                     dE             d eps       ncg     rms          rms(c)
DAV:   1    -0.290918086204E+04    0.51790E-04   -0.20111E-01  5504   0.419E-01    0.111E-01
DAV:   2    -0.290918125419E+04   -0.39215E-03   -0.46091E-03  6560   0.594E-02    0.507E-02
DAV:   3    -0.290918122234E+04    0.31858E-04   -0.83160E-05  6752   0.103E-02    0.315E-02
DAV:   4    -0.290918121380E+04    0.85341E-05   -0.67340E-05  6592   0.103E-02    0.113E-02
DAV:   5    -0.290918121502E+04   -0.12192E-05   -0.16420E-05  5216   0.455E-03
 161 F= -.29443614E+04 E0= -.29443614E+04  d E =-.510685E-03  mag=    -0.0000
       N       E                     dE             d eps       ncg     rms          rms(c)
DAV:   1    -0.290918118896E+04    0.24841E-04   -0.35486E-03  5760   0.556E-02    0.184E-02
DAV:   2    -0.290918119629E+04   -0.73277E-05   -0.87318E-05  6720   0.821E-03    0.711E-03
DAV:   3    -0.290918119595E+04    0.33557E-06   -0.14267E-06  4704   0.176E-03    0.437E-03
DAV:   4    -0.290918119633E+04   -0.38085E-06   -0.17561E-06  4704   0.205E-03    0.184E-03
DAV:   5    -0.290918119658E+04   -0.24284E-06   -0.73743E-07  4672   0.963E-04
 162 F= -.29443614E+04 E0= -.29443614E+04  d E =-.520079E-03  mag=    -0.0000
       N       E                     dE             d eps       ncg     rms          rms(c)
DAV:   1    -0.290918100145E+04    0.19489E-03   -0.19237E-01  5504   0.409E-01    0.109E-01
DAV:   2    -0.290918138116E+04   -0.37971E-03   -0.44561E-03  6528   0.582E-02    0.497E-02
DAV:   3    -0.290918135036E+04    0.30800E-04   -0.80181E-05  6720   0.100E-02    0.311E-02
DAV:   4    -0.290918134174E+04    0.86222E-05   -0.64489E-05  6528   0.100E-02    0.102E-02
DAV:   5    -0.290918134287E+04   -0.11328E-05   -0.15758E-05  5088   0.452E-03
 163 F= -.29443619E+04 E0= -.29443619E+04  d E =-.455209E-03  mag=    -0.0000
       N       E                     dE             d eps       ncg     rms          rms(c)
DAV:   1    -0.290918132708E+04    0.14653E-04   -0.55190E-04  6128   0.219E-02    0.949E-03
DAV:   2    -0.290918132838E+04   -0.12927E-05   -0.14766E-05  5344   0.352E-03    0.368E-03
DAV:   3    -0.290918132866E+04   -0.28079E-06   -0.81298E-07  4640   0.113E-03    0.235E-03
DAV:   4    -0.290918132897E+04   -0.31322E-06   -0.21489E-07  4736   0.829E-04    0.119E-03
DAV:   5    -0.290918132938E+04   -0.41042E-06   -0.90303E-08  4768   0.773E-04
 164 F= -.29443619E+04 E0= -.29443619E+04  d E =-.458209E-03  mag=    -0.0000
       N       E                     dE             d eps       ncg     rms          rms(c)
DAV:   1    -0.290918103635E+04    0.29262E-03   -0.17332E-01  5504   0.388E-01    0.105E-01
DAV:   2    -0.290918137649E+04   -0.34014E-03   -0.39906E-03  6560   0.551E-02    0.469E-02
DAV:   3    -0.290918134803E+04    0.28458E-04   -0.71617E-05  6752   0.969E-03    0.292E-02
DAV:   4    -0.290918133880E+04    0.92299E-05   -0.56236E-05  6336   0.100E-02    0.862E-03
DAV:   5    -0.290918133999E+04   -0.11919E-05   -0.16740E-05  5248   0.469E-03
 165 F= -.29443623E+04 E0= -.29443623E+04  d E =-.421711E-03  mag=    -0.0000
       N       E                     dE             d eps       ncg     rms          rms(c)
DAV:   1    -0.290918132733E+04    0.11472E-04   -0.18768E-04  6144   0.128E-02    0.694E-03
DAV:   2    -0.290918132777E+04   -0.43958E-06   -0.54413E-06  4736   0.227E-03    0.290E-03
DAV:   3    -0.290918132797E+04   -0.20571E-06   -0.40979E-07  4640   0.115E-03    0.139E-03
DAV:   4    -0.290918132832E+04   -0.34907E-06   -0.10687E-07  4672   0.128E-03    0.528E-04
DAV:   5    -0.290918132855E+04   -0.22544E-06   -0.25444E-07  4768   0.638E-04
 166 F= -.29443623E+04 E0= -.29443623E+04  d E =-.423676E-03  mag=    -0.0000
       N       E                     dE             d eps       ncg     rms          rms(c)
DAV:   1    -0.290918109583E+04    0.23249E-03   -0.14078E-01  5504   0.350E-01    0.959E-02
DAV:   2    -0.290918137182E+04   -0.27599E-03   -0.32798E-03  6496   0.502E-02    0.431E-02
DAV:   3    -0.290918134742E+04    0.24399E-04   -0.61226E-05  6752   0.892E-03    0.268E-02
DAV:   4    -0.290918133934E+04    0.80811E-05   -0.47037E-05  6336   0.874E-03    0.806E-03
DAV:   5    -0.290918134023E+04   -0.89075E-06   -0.12180E-05  4832   0.403E-03
 167 F= -.29443627E+04 E0= -.29443627E+04  d E =-.388076E-03  mag=    -0.0000
       N       E                     dE             d eps       ncg     rms          rms(c)
DAV:   1    -0.290918134116E+04   -0.18184E-05   -0.37531E-06  4576   0.220E-03    0.369E-03
DAV:   2    -0.290918134130E+04   -0.14313E-06   -0.78886E-07  4672   0.971E-04    0.250E-03
DAV:   3    -0.290918134149E+04   -0.19098E-06   -0.15442E-07  4672   0.681E-04    0.138E-03
DAV:   4    -0.290918134176E+04   -0.27486E-06   -0.63805E-08  4736   0.741E-04    0.495E-04
DAV:   5    -0.290918134195E+04   -0.18318E-06   -0.77209E-08  4608   0.429E-04
 168 F= -.29443627E+04 E0= -.29443627E+04  d E =-.388967E-03  mag=     0.0000
       N       E                     dE             d eps       ncg     rms          rms(c)
DAV:   1    -0.290918116037E+04    0.18140E-03   -0.13904E-01  5504   0.347E-01    0.938E-02
DAV:   2    -0.290918143206E+04   -0.27169E-03   -0.32027E-03  6592   0.494E-02    0.428E-02
DAV:   3    -0.290918140884E+04    0.23223E-04   -0.57828E-05  6720   0.862E-03    0.267E-02
DAV:   4    -0.290918140104E+04    0.77985E-05   -0.45383E-05  6336   0.831E-03    0.880E-03
DAV:   5    -0.290918140175E+04   -0.70955E-06   -0.11648E-05  4992   0.392E-03
 169 F= -.29443631E+04 E0= -.29443631E+04  d E =-.382451E-03  mag=     0.0000
