 Entering Gaussian System, Link 0=g16
 Initial command:
 /home/chesagar/softwares/G16_AVX2//g16/l1.exe "/home/chesagar/scratch/4460.raman-ib/Gau-45842.inp" -scrdir="/home/chesagar/scratch/4460.raman-ib/"
 Entering Link 1 = /home/chesagar/softwares/G16_AVX2//g16/l1.exe PID=     45843.
  
 Copyright (c) 1988-2019, Gaussian, Inc.  All Rights Reserved.
  
 This is part of the Gaussian(R) 16 program.  It is based on
 the Gaussian(R) 09 system (copyright 2009, Gaussian, Inc.),
 the Gaussian(R) 03 system (copyright 2003, Gaussian, Inc.),
 the Gaussian(R) 98 system (copyright 1998, Gaussian, Inc.),
 the Gaussian(R) 94 system (copyright 1995, Gaussian, Inc.),
 the Gaussian 92(TM) system (copyright 1992, Gaussian, Inc.),
 the Gaussian 90(TM) system (copyright 1990, Gaussian, Inc.),
 the Gaussian 88(TM) system (copyright 1988, Gaussian, Inc.),
 the Gaussian 86(TM) system (copyright 1986, Carnegie Mellon
 University), and the Gaussian 82(TM) system (copyright 1983,
 Carnegie Mellon University). Gaussian is a federally registered
 trademark of Gaussian, Inc.
  
 This software contains proprietary and confidential information,
 including trade secrets, belonging to Gaussian, Inc.
  
 This software is provided under written license and may be
 used, copied, transmitted, or stored only in accord with that
 written license.
  
 The following legend is applicable only to US Government
 contracts under FAR:
  
                    RESTRICTED RIGHTS LEGEND
  
 Use, reproduction and disclosure by the US Government is
 subject to restrictions as set forth in subparagraphs (a)
 and (c) of the Commercial Computer Software - Restricted
 Rights clause in FAR 52.227-19.
  
 Gaussian, Inc.
 340 Quinnipiac St., Bldg. 40, Wallingford CT 06492
  
  
 ---------------------------------------------------------------
 Warning -- This program may not be used in any manner that
 competes with the business of Gaussian, Inc. or will provide
 assistance to any competitor of Gaussian, Inc.  The licensee
 of this program is prohibited from giving any competitor of
 Gaussian, Inc. access to this program.  By using this program,
 the user acknowledges that Gaussian, Inc. is engaged in the
 business of creating and licensing software in the field of
 computational chemistry and represents and warrants to the
 licensee that it is not a competitor of Gaussian, Inc. and that
 it will not use this program in any manner prohibited above.
 ---------------------------------------------------------------
  

 Cite this work as:
 Gaussian 16, Revision C.01,
 M. J. Frisch, G. W. Trucks, H. B. Schlegel, G. E. Scuseria, 
 M. A. Robb, J. R. Cheeseman, G. Scalmani, V. Barone, 
 G. A. Petersson, H. Nakatsuji, X. Li, M. Caricato, A. V. Marenich, 
 J. Bloino, B. G. Janesko, R. Gomperts, B. Mennucci, H. P. Hratchian, 
 J. V. Ortiz, A. F. Izmaylov, J. L. Sonnenberg, D. Williams-Young, 
 F. Ding, F. Lipparini, F. Egidi, J. Goings, B. Peng, A. Petrone, 
 T. Henderson, D. Ranasinghe, V. G. Zakrzewski, J. Gao, N. Rega, 
 G. Zheng, W. Liang, M. Hada, M. Ehara, K. Toyota, R. Fukuda, 
 J. Hasegawa, M. Ishida, T. Nakajima, Y. Honda, O. Kitao, H. Nakai, 
 T. Vreven, K. Throssell, J. A. Montgomery, Jr., J. E. Peralta, 
 F. Ogliaro, M. J. Bearpark, J. J. Heyd, E. N. Brothers, K. N. Kudin, 
 V. N. Staroverov, T. A. Keith, R. Kobayashi, J. Normand, 
 K. Raghavachari, A. P. Rendell, J. C. Burant, S. S. Iyengar, 
 J. Tomasi, M. Cossi, J. M. Millam, M. Klene, C. Adamo, R. Cammi, 
 J. W. Ochterski, R. L. Martin, K. Morokuma, O. Farkas, 
 J. B. Foresman, and D. J. Fox, Gaussian, Inc., Wallingford CT, 2019.
 
 ******************************************
 Gaussian 16:  ES64L-G16RevC.01  3-Jul-2019
                 4-Nov-2021 
 ******************************************
 %nprocshared=16
 Will use up to   16 processors via shared memory.
 %chk=CO.chk
 %mem=8GB
 ---------------------------
 # opt freq b3lyp/6-31G(d,p)
 ---------------------------
 1/18=20,19=15,26=3,38=1/1,3;
 2/9=110,12=2,17=6,18=5,40=1/2;
 3/5=1,6=6,7=101,11=2,25=1,30=1,71=1,74=-5/1,2,3;
 4//1;
 5/5=2,38=5/2;
 6/7=2,8=2,9=2,10=2,28=1/1;
 7//1,2,3,16;
 1/18=20,19=15,26=3/3(2);
 2/9=110/2;
 99//99;
 2/9=110/2;
 3/5=1,6=6,7=101,11=2,25=1,30=1,71=1,74=-5/1,2,3;
 4/5=5,16=3,69=1/1;
 5/5=2,38=5/2;
 7//1,2,3,16;
 1/18=20,19=15,26=3/3(-5);
 2/9=110/2;
 6/7=2,8=2,9=2,10=2,19=2,28=1/1;
 99/9=1/99;
 -------------------
 Title Card Required
 -------------------
 Symbolic Z-matrix:
 Charge =  0 Multiplicity = 1
 6                     2.70451  -0.79647  -0.903 
 8                     3.85047  -0.99367  -0.973 
 

 GradGradGradGradGradGradGradGradGradGradGradGradGradGradGradGradGradGrad
 Berny optimization.
 Initialization pass.
                           ----------------------------
                           !    Initial Parameters    !
                           ! (Angstroms and Degrees)  !
 --------------------------                            --------------------------
 ! Name  Definition              Value          Derivative Info.                !
 --------------------------------------------------------------------------------
 ! R1    R(1,2)                  1.1649         estimate D2E/DX2                !
 --------------------------------------------------------------------------------
 Trust Radius=3.00D-01 FncErr=1.00D-07 GrdErr=1.00D-06 EigMax=2.50D+02 EigMin=1.00D-04
 Number of steps in this run=     20 maximum allowed number of steps=    100.
 GradGradGradGradGradGradGradGradGradGradGradGradGradGradGradGradGradGrad

                          Input orientation:                          
 ---------------------------------------------------------------------
 Center     Atomic      Atomic             Coordinates (Angstroms)
 Number     Number       Type             X           Y           Z
 ---------------------------------------------------------------------
      1          6           0        2.704507   -0.796473   -0.902995
      2          8           0        3.850471   -0.993665   -0.972995
 ---------------------------------------------------------------------
 Stoichiometry    CO
 Framework group  C*V[C*(CO)]
 Deg. of freedom     1
 Full point group                 C*V     NOp   4
 Largest Abelian subgroup         C2V     NOp   4
 Largest concise Abelian subgroup C1      NOp   1
                         Standard orientation:                         
 ---------------------------------------------------------------------
 Center     Atomic      Atomic             Coordinates (Angstroms)
 Number     Number       Type             X           Y           Z
 ---------------------------------------------------------------------
      1          6           0       -0.000000   -0.000000   -0.665664
      2          8           0        0.000000    0.000000    0.499248
 ---------------------------------------------------------------------
 Rotational constants (GHZ):           0.0000000          54.3184677          54.3184677
 Standard basis: 6-31G(d,p) (6D, 7F)
 There are    16 symmetry adapted cartesian basis functions of A1  symmetry.
 There are     2 symmetry adapted cartesian basis functions of A2  symmetry.
 There are     6 symmetry adapted cartesian basis functions of B1  symmetry.
 There are     6 symmetry adapted cartesian basis functions of B2  symmetry.
 There are    16 symmetry adapted basis functions of A1  symmetry.
 There are     2 symmetry adapted basis functions of A2  symmetry.
 There are     6 symmetry adapted basis functions of B1  symmetry.
 There are     6 symmetry adapted basis functions of B2  symmetry.
    30 basis functions,    56 primitive gaussians,    30 cartesian basis functions
     7 alpha electrons        7 beta electrons
       nuclear repulsion energy        21.8046710054 Hartrees.
 NAtoms=    2 NActive=    2 NUniq=    2 SFac= 1.00D+00 NAtFMM=   60 NAOKFM=F Big=F
 Integral buffers will be    131072 words long.
 Raffenetti 2 integral format.
 Two-electron integral symmetry is turned on.
 One-electron integrals computed using PRISM.
 NBasis=    30 RedAO= T EigKep=  8.47D-03  NBF=    16     2     6     6
 NBsUse=    30 1.00D-06 EigRej= -1.00D+00 NBFU=    16     2     6     6
 ExpMin= 1.69D-01 ExpMax= 5.48D+03 ExpMxC= 8.25D+02 IAcc=3 IRadAn=         5 AccDes= 0.00D+00
 Harris functional with IExCor=  402 and IRadAn=       5 diagonalized for initial guess.
 HarFok:  IExCor=  402 AccDes= 0.00D+00 IRadAn=         5 IDoV= 1 UseB2=F ITyADJ=14
 ICtDFT=  3500011 ScaDFX=  1.000000  1.000000  1.000000  1.000000
 FoFCou: FMM=F IPFlag=           0 FMFlag=      100000 FMFlg1=           0
         NFxFlg=           0 DoJE=T BraDBF=F KetDBF=T FulRan=T
         wScrn=  0.000000 ICntrl=       500 IOpCl=  0 I1Cent=   200000004 NGrid=           0
         NMat0=    1 NMatS0=      1 NMatT0=    0 NMatD0=    1 NMtDS0=    0 NMtDT0=    0
 Petite list used in FoFCou.
 Initial guess orbital symmetries:
       Occupied  (SG) (SG) (SG) (SG) (PI) (PI) (SG)
       Virtual   (PI) (PI) (SG) (PI) (PI) (SG) (SG) (SG) (PI) (PI)
                 (SG) (DLTA) (DLTA) (PI) (PI) (DLTA) (DLTA) (SG)
                 (PI) (PI) (SG) (SG) (SG)
 The electronic state of the initial guess is 1-SG.
 Keep R1 ints in memory in symmetry-blocked form, NReq=13928143.
 Requested convergence on RMS density matrix=1.00D-08 within 128 cycles.
 Requested convergence on MAX density matrix=1.00D-06.
 Requested convergence on             energy=1.00D-06.
 No special actions if energy rises.
 Integral accuracy reduced to 1.0D-05 until final iterations.
 Initial convergence to 1.0D-05 achieved.  Increase integral accuracy.
 SCF Done:  E(RB3LYP) =  -113.307907847     A.U. after   10 cycles
            NFock= 10  Conv=0.59D-08     -V/T= 2.0098

 **********************************************************************

            Population analysis using the SCF Density.

 **********************************************************************

 Orbital symmetries:
       Occupied  (SG) (SG) (SG) (SG) (PI) (PI) (SG)
       Virtual   (PI) (PI) (SG) (PI) (PI) (SG) (SG) (SG) (PI) (PI)
                 (SG) (DLTA) (DLTA) (PI) (PI) (DLTA) (DLTA) (SG)
                 (PI) (PI) (SG) (SG) (SG)
 The electronic state is 1-SG.
 Alpha  occ. eigenvalues --  -19.25865 -10.31274  -1.14280  -0.57008  -0.45852
 Alpha  occ. eigenvalues --   -0.45852  -0.37399
 Alpha virt. eigenvalues --   -0.03221  -0.03221   0.25886   0.51244   0.51244
 Alpha virt. eigenvalues --    0.57356   0.70934   0.79897   0.91558   0.91558
 Alpha virt. eigenvalues --    1.36041   1.48821   1.48821   1.52104   1.52104
 Alpha virt. eigenvalues --    1.92823   1.92823   2.34215   2.57005   2.57005
 Alpha virt. eigenvalues --    2.90988   3.64758   3.89312
          Condensed to atoms (all electrons):
               1          2
     1  C    5.253288   0.552130
     2  O    0.552130   7.642452
 Mulliken charges:
               1
     1  C    0.194582
     2  O   -0.194582
 Sum of Mulliken charges =   0.00000
 Mulliken charges with hydrogens summed into heavy atoms:
               1
     1  C    0.194582
     2  O   -0.194582
 Electronic spatial extent (au):  <R**2>=             40.2582
 Charge=              0.0000 electrons
 Dipole moment (field-independent basis, Debye):
    X=             -0.0000    Y=             -0.0000    Z=             -0.0297  Tot=              0.0297
 Quadrupole moment (field-independent basis, Debye-Ang):
   XX=             -9.9266   YY=             -9.9266   ZZ=            -11.9478
   XY=              0.0000   XZ=             -0.0000   YZ=             -0.0000
 Traceless Quadrupole moment (field-independent basis, Debye-Ang):
   XX=              0.6737   YY=              0.6737   ZZ=             -1.3474
   XY=              0.0000   XZ=             -0.0000   YZ=             -0.0000
 Octapole moment (field-independent basis, Debye-Ang**2):
  XXX=             -0.0000  YYY=              0.0000  ZZZ=              5.7663  XYY=             -0.0000
  XXY=              0.0000  XXZ=              1.0659  XZZ=             -0.0000  YZZ=              0.0000
  YYZ=              1.0659  XYZ=              0.0000
 Hexadecapole moment (field-independent basis, Debye-Ang**3):
 XXXX=             -7.9180 YYYY=             -7.9180 ZZZZ=            -35.4749 XXXY=              0.0000
 XXXZ=             -0.0000 YYYX=              0.0000 YYYZ=             -0.0000 ZZZX=             -0.0000
 ZZZY=             -0.0000 XXYY=             -2.6393 XXZZ=             -6.6824 YYZZ=             -6.6824
 XXYZ=             -0.0000 YYXZ=             -0.0000 ZZXY=              0.0000
 N-N= 2.180467100536D+01 E-N=-3.092257141033D+02  KE= 1.122087629395D+02
 Symmetry A1   KE= 1.041256766576D+02
 Symmetry A2   KE= 1.460570791242D-33
 Symmetry B1   KE= 4.041543140940D+00
 Symmetry B2   KE= 4.041543140940D+00
 Calling FoFJK, ICntrl=      2127 FMM=F ISym2X=1 I1Cent= 0 IOpClX= 0 NMat=1 NMatS=1 NMatT=0.
 ***** Axes restored to original set *****
 -------------------------------------------------------------------
 Center     Atomic                   Forces (Hartrees/Bohr)
 Number     Number              X              Y              Z
 -------------------------------------------------------------------
      1        6           0.057799025   -0.009945780   -0.003530592
      2        8          -0.057799025    0.009945780    0.003530592
 -------------------------------------------------------------------
 Cartesian Forces:  Max     0.057799025 RMS     0.033922023

 GradGradGradGradGradGradGradGradGradGradGradGradGradGradGradGradGradGrad
 Berny optimization.
 FormGI is forming the generalized inverse of G from B-inverse, IUseBI=4.
 Internal  Forces:  Max     0.058754667 RMS     0.058754667
 Search for a local minimum.
 Step number   1 out of a maximum of   20
 All quantities printed in internal units (Hartrees-Bohrs-Radians)
 Mixed Optimization -- RFO/linear search
 Second derivative matrix not updated -- first step.
 The second derivative matrix:
                          R1
           R1           1.24633
 ITU=  0
     Eigenvalues ---    1.24633
 RFO step:  Lambda=-2.76369553D-03 EMin= 1.24632864D+00
 Linear search not attempted -- first point.
 Iteration  1 RMS(Cart)=  0.03326081 RMS(Int)=  0.00000000
 Iteration  2 RMS(Cart)=  0.00000000 RMS(Int)=  0.00000000
 ClnCor:  largest displacement from symmetrization is 2.22D-16 for atom     1.
 Variable       Old X    -DE/DX   Delta X   Delta X   Delta X     New X
                                 (Linear)    (Quad)   (Total)
    R1        2.20136  -0.05875   0.00000  -0.04704  -0.04704   2.15433
         Item               Value     Threshold  Converged?
 Maximum Force            0.058755     0.000450     NO 
 RMS     Force            0.058755     0.000300     NO 
 Maximum Displacement     0.023136     0.001800     NO 
 RMS     Displacement     0.033261     0.001200     NO 
 Predicted change in Energy=-1.384905D-03
 GradGradGradGradGradGradGradGradGradGradGradGradGradGradGradGradGradGrad

                          Input orientation:                          
 ---------------------------------------------------------------------
 Center     Atomic      Atomic             Coordinates (Angstroms)
 Number     Number       Type             X           Y           Z
 ---------------------------------------------------------------------
      1          6           0        2.716750   -0.798580   -0.903743
      2          8           0        3.838228   -0.991558   -0.972247
 ---------------------------------------------------------------------
 Stoichiometry    CO
 Framework group  C*V[C*(CO)]
 Deg. of freedom     1
 Full point group                 C*V     NOp   4
 Largest Abelian subgroup         C2V     NOp   4
 Largest concise Abelian subgroup C1      NOp   1
                         Standard orientation:                         
 ---------------------------------------------------------------------
 Center     Atomic      Atomic             Coordinates (Angstroms)
 Number     Number       Type             X           Y           Z
 ---------------------------------------------------------------------
      1          6           0       -0.000000   -0.000000   -0.651440
      2          8           0        0.000000    0.000000    0.488580
 ---------------------------------------------------------------------
 Rotational constants (GHZ):           0.0000000          56.7163595          56.7163595
 Standard basis: 6-31G(d,p) (6D, 7F)
 There are    16 symmetry adapted cartesian basis functions of A1  symmetry.
 There are     2 symmetry adapted cartesian basis functions of A2  symmetry.
 There are     6 symmetry adapted cartesian basis functions of B1  symmetry.
 There are     6 symmetry adapted cartesian basis functions of B2  symmetry.
 There are    16 symmetry adapted basis functions of A1  symmetry.
 There are     2 symmetry adapted basis functions of A2  symmetry.
 There are     6 symmetry adapted basis functions of B1  symmetry.
 There are     6 symmetry adapted basis functions of B2  symmetry.
    30 basis functions,    56 primitive gaussians,    30 cartesian basis functions
     7 alpha electrons        7 beta electrons
       nuclear repulsion energy        22.2807577426 Hartrees.
 NAtoms=    2 NActive=    2 NUniq=    2 SFac= 1.00D+00 NAtFMM=   60 NAOKFM=F Big=F
 Integral buffers will be    131072 words long.
 Raffenetti 2 integral format.
 Two-electron integral symmetry is turned on.
 One-electron integrals computed using PRISM.
 NBasis=    30 RedAO= T EigKep=  7.97D-03  NBF=    16     2     6     6
 NBsUse=    30 1.00D-06 EigRej= -1.00D+00 NBFU=    16     2     6     6
 Initial guess from the checkpoint file:  "CO.chk"
 B after Tr=    -0.000000   -0.000000    0.000000
         Rot=    1.000000   -0.000000    0.000000    0.000000 Ang=   0.00 deg.
 Initial guess orbital symmetries:
       Occupied  (SG) (SG) (SG) (SG) (PI) (PI) (SG)
       Virtual   (PI) (PI) (SG) (PI) (PI) (SG) (SG) (SG) (PI) (PI)
                 (SG) (DLTA) (DLTA) (PI) (PI) (DLTA) (DLTA) (SG)
                 (PI) (PI) (SG) (SG) (SG)
 ExpMin= 1.69D-01 ExpMax= 5.48D+03 ExpMxC= 8.25D+02 IAcc=3 IRadAn=         5 AccDes= 0.00D+00
 Harris functional with IExCor=  402 and IRadAn=       5 diagonalized for initial guess.
 HarFok:  IExCor=  402 AccDes= 0.00D+00 IRadAn=         5 IDoV= 1 UseB2=F ITyADJ=14
 ICtDFT=  3500011 ScaDFX=  1.000000  1.000000  1.000000  1.000000
 FoFCou: FMM=F IPFlag=           0 FMFlag=      100000 FMFlg1=           0
         NFxFlg=           0 DoJE=T BraDBF=F KetDBF=T FulRan=T
         wScrn=  0.000000 ICntrl=       500 IOpCl=  0 I1Cent=   200000004 NGrid=           0
         NMat0=    1 NMatS0=      1 NMatT0=    0 NMatD0=    1 NMtDS0=    0 NMtDT0=    0
 Petite list used in FoFCou.
 Keep R1 ints in memory in symmetry-blocked form, NReq=13928143.
 Requested convergence on RMS density matrix=1.00D-08 within 128 cycles.
 Requested convergence on MAX density matrix=1.00D-06.
 Requested convergence on             energy=1.00D-06.
 No special actions if energy rises.
 Integral accuracy reduced to 1.0D-05 until final iterations.
 Initial convergence to 1.0D-05 achieved.  Increase integral accuracy.
 SCF Done:  E(RB3LYP) =  -113.309443385     A.U. after    9 cycles
            NFock=  9  Conv=0.41D-08     -V/T= 2.0088
 Calling FoFJK, ICntrl=      2127 FMM=F ISym2X=1 I1Cent= 0 IOpClX= 0 NMat=1 NMatS=1 NMatT=0.
 ***** Axes restored to original set *****
 -------------------------------------------------------------------
 Center     Atomic                   Forces (Hartrees/Bohr)
 Number     Number              X              Y              Z
 -------------------------------------------------------------------
      1        6           0.004865457   -0.000837225   -0.000297201
      2        8          -0.004865457    0.000837225    0.000297201
 -------------------------------------------------------------------
 Cartesian Forces:  Max     0.004865457 RMS     0.002855518

 GradGradGradGradGradGradGradGradGradGradGradGradGradGradGradGradGradGrad
 Berny optimization.
 Using GEDIIS/GDIIS optimizer.
 Internal  Forces:  Max     0.004945902 RMS     0.004945902
 Search for a local minimum.
 Step number   2 out of a maximum of   20
 All quantities printed in internal units (Hartrees-Bohrs-Radians)
 Mixed Optimization -- RFO/linear search
 Update second derivatives using D2CorX and points    1    2
 DE= -1.54D-03 DEPred=-1.38D-03 R= 1.11D+00
 TightC=F SS=  1.41D+00  RLast= 4.70D-02 DXNew= 5.0454D-01 1.4111D-01
 Trust test= 1.11D+00 RLast= 4.70D-02 DXMaxT set to 3.00D-01
 The second derivative matrix:
                          R1
           R1           1.14395
 ITU=  1  0
 Use linear search instead of GDIIS.
     Eigenvalues ---    1.14395
 RFO step:  Lambda= 0.00000000D+00 EMin= 1.14394514D+00
 Quartic linear search produced a step of  0.08374.
 Iteration  1 RMS(Cart)=  0.00278522 RMS(Int)=  0.00000000
 Iteration  2 RMS(Cart)=  0.00000000 RMS(Int)=  0.00000000
 ClnCor:  largest displacement from symmetrization is 2.22D-16 for atom     1.
 Variable       Old X    -DE/DX   Delta X   Delta X   Delta X     New X
                                 (Linear)    (Quad)   (Total)
    R1        2.15433  -0.00495  -0.00394  -0.00000  -0.00394   2.15039
         Item               Value     Threshold  Converged?
 Maximum Force            0.004946     0.000450     NO 
 RMS     Force            0.004946     0.000300     NO 
 Maximum Displacement     0.001937     0.001800     NO 
 RMS     Displacement     0.002785     0.001200     NO 
 Predicted change in Energy=-1.060729D-05
 GradGradGradGradGradGradGradGradGradGradGradGradGradGradGradGradGradGrad

                          Input orientation:                          
 ---------------------------------------------------------------------
 Center     Atomic      Atomic             Coordinates (Angstroms)
 Number     Number       Type             X           Y           Z
 ---------------------------------------------------------------------
      1          6           0        2.717775   -0.798756   -0.903805
      2          8           0        3.837203   -0.991382   -0.972185
 ---------------------------------------------------------------------
 Stoichiometry    CO
 Framework group  C*V[C*(CO)]
 Deg. of freedom     1
 Full point group                 C*V     NOp   4
 Largest Abelian subgroup         C2V     NOp   4
 Largest concise Abelian subgroup C1      NOp   1
                         Standard orientation:                         
 ---------------------------------------------------------------------
 Center     Atomic      Atomic             Coordinates (Angstroms)
 Number     Number       Type             X           Y           Z
 ---------------------------------------------------------------------
      1          6           0        0.000000    0.000000   -0.650249
      2          8           0        0.000000   -0.000000    0.487687
 ---------------------------------------------------------------------
 Rotational constants (GHZ):           0.0000000          56.9243260          56.9243260
 Standard basis: 6-31G(d,p) (6D, 7F)
 There are    16 symmetry adapted cartesian basis functions of A1  symmetry.
 There are     2 symmetry adapted cartesian basis functions of A2  symmetry.
 There are     6 symmetry adapted cartesian basis functions of B1  symmetry.
 There are     6 symmetry adapted cartesian basis functions of B2  symmetry.
 There are    16 symmetry adapted basis functions of A1  symmetry.
 There are     2 symmetry adapted basis functions of A2  symmetry.
 There are     6 symmetry adapted basis functions of B1  symmetry.
 There are     6 symmetry adapted basis functions of B2  symmetry.
    30 basis functions,    56 primitive gaussians,    30 cartesian basis functions
     7 alpha electrons        7 beta electrons
       nuclear repulsion energy        22.3215696953 Hartrees.
 NAtoms=    2 NActive=    2 NUniq=    2 SFac= 1.00D+00 NAtFMM=   60 NAOKFM=F Big=F
 Integral buffers will be    131072 words long.
 Raffenetti 2 integral format.
 Two-electron integral symmetry is turned on.
 One-electron integrals computed using PRISM.
 NBasis=    30 RedAO= T EigKep=  7.93D-03  NBF=    16     2     6     6
 NBsUse=    30 1.00D-06 EigRej= -1.00D+00 NBFU=    16     2     6     6
 Initial guess from the checkpoint file:  "CO.chk"
 B after Tr=    -0.000000    0.000000    0.000000
         Rot=    1.000000   -0.000000    0.000000    0.000000 Ang=   0.00 deg.
 Initial guess orbital symmetries:
       Occupied  (SG) (SG) (SG) (SG) (PI) (PI) (SG)
       Virtual   (PI) (PI) (SG) (PI) (PI) (SG) (SG) (SG) (PI) (PI)
                 (SG) (DLTA) (DLTA) (PI) (PI) (DLTA) (DLTA) (SG)
                 (PI) (PI) (SG) (SG) (SG)
 Keep R1 ints in memory in symmetry-blocked form, NReq=13928143.
 Requested convergence on RMS density matrix=1.00D-08 within 128 cycles.
 Requested convergence on MAX density matrix=1.00D-06.
 Requested convergence on             energy=1.00D-06.
 No special actions if energy rises.
 SCF Done:  E(RB3LYP) =  -113.309453139     A.U. after    6 cycles
            NFock=  6  Conv=0.93D-08     -V/T= 2.0087
 Calling FoFJK, ICntrl=      2127 FMM=F ISym2X=1 I1Cent= 0 IOpClX= 0 NMat=1 NMatS=1 NMatT=0.
 ***** Axes restored to original set *****
 -------------------------------------------------------------------
 Center     Atomic                   Forces (Hartrees/Bohr)
 Number     Number              X              Y              Z
 -------------------------------------------------------------------
      1        6          -0.000005013    0.000000863    0.000000306
      2        8           0.000005013   -0.000000863   -0.000000306
 -------------------------------------------------------------------
 Cartesian Forces:  Max     0.000005013 RMS     0.000002942

 GradGradGradGradGradGradGradGradGradGradGradGradGradGradGradGradGradGrad
 Berny optimization.
 Using GEDIIS/GDIIS optimizer.
 Internal  Forces:  Max     0.000005096 RMS     0.000005096
 Search for a local minimum.
 Step number   3 out of a maximum of   20
 All quantities printed in internal units (Hartrees-Bohrs-Radians)
 Mixed Optimization -- En-DIIS/RFO-DIIS
 Update second derivatives using D2CorX and points    2    3
 DE= -9.75D-06 DEPred=-1.06D-05 R= 9.20D-01
 TightC=F SS=  1.41D+00  RLast= 3.94D-03 DXNew= 5.0454D-01 1.1817D-02
 Trust test= 9.20D-01 RLast= 3.94D-03 DXMaxT set to 3.00D-01
 The second derivative matrix:
                          R1
           R1           1.25695
 ITU=  1  1
 Use linear search instead of GDIIS.
     Eigenvalues ---    1.25695
 RFO step:  Lambda= 0.00000000D+00 EMin= 1.25695240D+00
 Quartic linear search produced a step of -0.00102.
 Iteration  1 RMS(Cart)=  0.00000285 RMS(Int)=  0.00000000
 Iteration  2 RMS(Cart)=  0.00000000 RMS(Int)=  0.00000000
 ClnCor:  largest displacement from symmetrization is 2.22D-16 for atom     1.
 Variable       Old X    -DE/DX   Delta X   Delta X   Delta X     New X
                                 (Linear)    (Quad)   (Total)
    R1        2.15039   0.00001   0.00000   0.00000   0.00000   2.15039
         Item               Value     Threshold  Converged?
 Maximum Force            0.000005     0.000450     YES
 RMS     Force            0.000005     0.000300     YES
 Maximum Displacement     0.000002     0.001800     YES
 RMS     Displacement     0.000003     0.001200     YES
 Predicted change in Energy=-1.032855D-11
 Optimization completed.
    -- Stationary point found.
                           ----------------------------
                           !   Optimized Parameters   !
                           ! (Angstroms and Degrees)  !
 --------------------------                            --------------------------
 ! Name  Definition              Value          Derivative Info.                !
 --------------------------------------------------------------------------------
 ! R1    R(1,2)                  1.1379         -DE/DX =    0.0                 !
 --------------------------------------------------------------------------------
 GradGradGradGradGradGradGradGradGradGradGradGradGradGradGradGradGradGrad

                          Input orientation:                          
 ---------------------------------------------------------------------
 Center     Atomic      Atomic             Coordinates (Angstroms)
 Number     Number       Type             X           Y           Z
 ---------------------------------------------------------------------
      1          6           0        2.717775   -0.798756   -0.903805
      2          8           0        3.837203   -0.991382   -0.972185
 ---------------------------------------------------------------------
 Stoichiometry    CO
 Framework group  C*V[C*(CO)]
 Deg. of freedom     1
 Full point group                 C*V     NOp   4
 Largest Abelian subgroup         C2V     NOp   4
 Largest concise Abelian subgroup C1      NOp   1
                         Standard orientation:                         
 ---------------------------------------------------------------------
 Center     Atomic      Atomic             Coordinates (Angstroms)
 Number     Number       Type             X           Y           Z
 ---------------------------------------------------------------------
      1          6           0        0.000000    0.000000   -0.650249
      2          8           0       -0.000000   -0.000000    0.487687
 ---------------------------------------------------------------------
 Rotational constants (GHZ):           0.0000000          56.9243260          56.9243260

 **********************************************************************

            Population analysis using the SCF Density.

 **********************************************************************

 Orbital symmetries:
       Occupied  (SG) (SG) (SG) (SG) (PI) (PI) (SG)
       Virtual   (PI) (PI) (SG) (PI) (PI) (SG) (SG) (SG) (PI) (PI)
                 (SG) (DLTA) (DLTA) (PI) (PI) (DLTA) (DLTA) (SG)
                 (PI) (PI) (SG) (SG) (SG)
 The electronic state is 1-SG.
 Alpha  occ. eigenvalues --  -19.25805 -10.30433  -1.15790  -0.57004  -0.46743
 Alpha  occ. eigenvalues --   -0.46743  -0.37145
 Alpha virt. eigenvalues --   -0.02178  -0.02178   0.26241   0.51174   0.51174
 Alpha virt. eigenvalues --    0.57521   0.74923   0.79954   0.91633   0.91633
 Alpha virt. eigenvalues --    1.37166   1.47906   1.47906   1.54042   1.54042
 Alpha virt. eigenvalues --    1.94253   1.94253   2.39579   2.59905   2.59905
 Alpha virt. eigenvalues --    2.94965   3.67315   3.90055
          Condensed to atoms (all electrons):
               1          2
     1  C    5.251715   0.573910
     2  O    0.573910   7.600464
 Mulliken charges:
               1
     1  C    0.174374
     2  O   -0.174374
 Sum of Mulliken charges =   0.00000
 Mulliken charges with hydrogens summed into heavy atoms:
               1
     1  C    0.174374
     2  O   -0.174374
 Electronic spatial extent (au):  <R**2>=             39.4003
 Charge=             -0.0000 electrons
 Dipole moment (field-independent basis, Debye):
    X=              0.0000    Y=             -0.0000    Z=              0.0599  Tot=              0.0599
 Quadrupole moment (field-independent basis, Debye-Ang):
   XX=             -9.8673   YY=             -9.8673   ZZ=            -11.9357
   XY=              0.0000   XZ=              0.0000   YZ=              0.0000
 Traceless Quadrupole moment (field-independent basis, Debye-Ang):
   XX=              0.6895   YY=              0.6895   ZZ=             -1.3789
   XY=              0.0000   XZ=              0.0000   YZ=              0.0000
 Octapole moment (field-independent basis, Debye-Ang**2):
  XXX=              0.0000  YYY=             -0.0000  ZZZ=              5.7299  XYY=              0.0000
  XXY=             -0.0000  XXZ=              1.0709  XZZ=              0.0000  YZZ=             -0.0000
  YYZ=              1.0709  XYZ=              0.0000
 Hexadecapole moment (field-independent basis, Debye-Ang**3):
 XXXX=             -7.8298 YYYY=             -7.8298 ZZZZ=            -34.3621 XXXY=              0.0000
 XXXZ=              0.0000 YYYX=              0.0000 YYYZ=              0.0000 ZZZX=              0.0000
 ZZZY=              0.0000 XXYY=             -2.6099 XXZZ=             -6.4990 YYZZ=             -6.4990
 XXYZ=              0.0000 YYXZ=              0.0000 ZZXY=              0.0000
 N-N= 2.232156969526D+01 E-N=-3.103256743061D+02  KE= 1.123290441023D+02
 Symmetry A1   KE= 1.042143880371D+02
 Symmetry A2   KE= 1.045551581847D-32
 Symmetry B1   KE= 4.057328032590D+00
 Symmetry B2   KE= 4.057328032590D+00
 Unable to Open any file for archive entry.
 1\1\GINC-NODE7-IB\FOpt\RB3LYP\6-31G(d,p)\C1O1\CHESAGAR\04-Nov-2021\0\\
 # opt freq b3lyp/6-31G(d,p)\\Title Card Required\\0,1\C,2.7177754954,-
 0.7987561792,-0.903805492\O,3.8372025046,-0.9913818208,-0.972184508\\V
 ersion=ES64L-G16RevC.01\State=1-SG\HF=-113.3094531\RMSD=9.349e-09\RMSF
 =2.942e-06\Dipole=0.023178,-0.0039884,-0.0014158\Quadrupole=-0.975576,
 0.4685321,0.5070439,0.2560776,0.0909035,-0.0156422\PG=C*V [C*(C1O1)]\\
 @
 The archive entry for this job was punched.


 ... THE UNIVERSE IS NOT ONLY QUEERER THAN WE SUPPOSE,
 BUT QUEERER THAN WE CAN SUPPOSE ... 

                                   -- J. B. S. HALDANE
 Job cpu time:       0 days  0 hours  0 minutes 38.6 seconds.
 Elapsed time:       0 days  0 hours  0 minutes  3.5 seconds.
 File lengths (MBytes):  RWF=     17 Int=      0 D2E=      0 Chk=      2 Scr=      2
 Normal termination of Gaussian 16 at Thu Nov  4 11:39:05 2021.
 Link1:  Proceeding to internal job step number  2.
 ----------------------------------------------------------------------
 #N Geom=AllCheck Guess=TCheck SCRF=Check GenChk RB3LYP/6-31G(d,p) Freq
 ----------------------------------------------------------------------
 1/10=4,29=7,30=1,38=1,40=1/1,3;
 2/12=2,40=1/2;
 3/5=1,6=6,7=101,11=2,14=-4,25=1,30=1,70=2,71=2,74=-5,116=1,140=1/1,2,3;
 4/5=101/1;
 5/5=2,38=6,98=1/2;
 8/6=4,10=90,11=11/1;
 11/6=1,8=1,9=11,15=111,16=1/1,2,10;
 10/6=1/2;
 6/7=2,8=2,9=2,10=2,28=1/1;
 7/8=1,10=1,25=1/1,2,3,16;
 1/10=4,30=1/3;
 99//99;
 Structure from the checkpoint file:  "CO.chk"
 -------------------
 Title Card Required
 -------------------
 Charge =  0 Multiplicity = 1
 Redundant internal coordinates found in file.  (old form).
 C,0,2.7177754954,-0.7987561792,-0.903805492
 O,0,3.8372025046,-0.9913818208,-0.972184508
 Recover connectivity data from disk.

 GradGradGradGradGradGradGradGradGradGradGradGradGradGradGradGradGradGrad
 Berny optimization.
 Initialization pass.
                           ----------------------------
                           !    Initial Parameters    !
                           ! (Angstroms and Degrees)  !
 --------------------------                            --------------------------
 ! Name  Definition              Value          Derivative Info.                !
 --------------------------------------------------------------------------------
 ! R1    R(1,2)                  1.1379         calculate D2E/DX2 analytically  !
 --------------------------------------------------------------------------------
 Trust Radius=3.00D-01 FncErr=1.00D-07 GrdErr=1.00D-07 EigMax=2.50D+02 EigMin=1.00D-04
 Number of steps in this run=      2 maximum allowed number of steps=      2.
 GradGradGradGradGradGradGradGradGradGradGradGradGradGradGradGradGradGrad

                          Input orientation:                          
 ---------------------------------------------------------------------
 Center     Atomic      Atomic             Coordinates (Angstroms)
 Number     Number       Type             X           Y           Z
 ---------------------------------------------------------------------
      1          6           0        2.717775   -0.798756   -0.903805
      2          8           0        3.837203   -0.991382   -0.972185
 ---------------------------------------------------------------------
 Stoichiometry    CO
 Framework group  C*V[C*(CO)]
 Deg. of freedom     1
 Full point group                 C*V     NOp   4
 Largest Abelian subgroup         C2V     NOp   4
 Largest concise Abelian subgroup C1      NOp   1
                         Standard orientation:                         
 ---------------------------------------------------------------------
 Center     Atomic      Atomic             Coordinates (Angstroms)
 Number     Number       Type             X           Y           Z
 ---------------------------------------------------------------------
      1          6           0        0.000000    0.000000   -0.650249
      2          8           0       -0.000000   -0.000000    0.487687
 ---------------------------------------------------------------------
 Rotational constants (GHZ):           0.0000000          56.9243260          56.9243260
 Standard basis: 6-31G(d,p) (6D, 7F)
 There are    16 symmetry adapted cartesian basis functions of A1  symmetry.
 There are     2 symmetry adapted cartesian basis functions of A2  symmetry.
 There are     6 symmetry adapted cartesian basis functions of B1  symmetry.
 There are     6 symmetry adapted cartesian basis functions of B2  symmetry.
 There are    16 symmetry adapted basis functions of A1  symmetry.
 There are     2 symmetry adapted basis functions of A2  symmetry.
 There are     6 symmetry adapted basis functions of B1  symmetry.
 There are     6 symmetry adapted basis functions of B2  symmetry.
    30 basis functions,    56 primitive gaussians,    30 cartesian basis functions
     7 alpha electrons        7 beta electrons
       nuclear repulsion energy        22.3215696953 Hartrees.
 NAtoms=    2 NActive=    2 NUniq=    2 SFac= 1.00D+00 NAtFMM=   60 NAOKFM=F Big=F
 Integral buffers will be    131072 words long.
 Raffenetti 2 integral format.
 Two-electron integral symmetry is turned on.
 One-electron integrals computed using PRISM.
 NBasis=    30 RedAO= T EigKep=  7.93D-03  NBF=    16     2     6     6
 NBsUse=    30 1.00D-06 EigRej= -1.00D+00 NBFU=    16     2     6     6
 Initial guess from the checkpoint file:  "CO.chk"
 B after Tr=     0.000000   -0.000000    0.000000
         Rot=    1.000000    0.000000   -0.000000    0.000000 Ang=   0.00 deg.
 Initial guess orbital symmetries:
       Occupied  (SG) (SG) (SG) (SG) (PI) (PI) (SG)
       Virtual   (PI) (PI) (SG) (PI) (PI) (SG) (SG) (SG) (PI) (PI)
                 (SG) (DLTA) (DLTA) (PI) (PI) (DLTA) (DLTA) (SG)
                 (PI) (PI) (SG) (SG) (SG)
 Keep R1 ints in memory in symmetry-blocked form, NReq=13928143.
 Requested convergence on RMS density matrix=1.00D-08 within 128 cycles.
 Requested convergence on MAX density matrix=1.00D-06.
 Requested convergence on             energy=1.00D-06.
 No special actions if energy rises.
 SCF Done:  E(RB3LYP) =  -113.309453139     A.U. after    1 cycles
            NFock=  1  Conv=0.49D-08     -V/T= 2.0087
 DoSCS=F DFT=T ScalE2(SS,OS)=  1.000000  1.000000
 Range of M.O.s used for correlation:     1    30
 NBasis=    30 NAE=     7 NBE=     7 NFC=     0 NFV=     0
 NROrb=     30 NOA=     7 NOB=     7 NVA=    23 NVB=    23
 Symmetrizing basis deriv contribution to polar:
 IMax=3 JMax=2 DiffMx= 0.00D+00
 G2DrvN: will do     3 centers at a time, making    1 passes.
 Calling FoFCou, ICntrl=  3107 FMM=F I1Cent=   0 AccDes= 0.00D+00.
 End of G2Drv F.D. properties file   721 does not exist.
 End of G2Drv F.D. properties file   722 does not exist.
 End of G2Drv F.D. properties file   788 does not exist.
          IDoAtm=11
          Differentiating once with respect to electric field.
                with respect to dipole field.
          Differentiating once with respect to nuclear coordinates.
 Keep R1 ints in memory in symmetry-blocked form, NReq=13874050.
          There are     9 degrees of freedom in the 1st order CPHF.  IDoFFX=6 NUNeed=     3.
      6 vectors produced by pass  0 Test12= 1.79D-15 1.11D-08 XBig12= 1.13D+01 2.15D+00.
 AX will form     6 AO Fock derivatives at one time.
      6 vectors produced by pass  1 Test12= 1.79D-15 1.11D-08 XBig12= 6.13D+00 1.24D+00.
      6 vectors produced by pass  2 Test12= 1.79D-15 1.11D-08 XBig12= 3.73D-02 6.19D-02.
      6 vectors produced by pass  3 Test12= 1.79D-15 1.11D-08 XBig12= 6.71D-04 1.71D-02.
      6 vectors produced by pass  4 Test12= 1.79D-15 1.11D-08 XBig12= 1.16D-06 4.80D-04.
      6 vectors produced by pass  5 Test12= 1.79D-15 1.11D-08 XBig12= 1.67D-09 1.34D-05.
      1 vectors produced by pass  6 Test12= 1.79D-15 1.11D-08 XBig12= 2.47D-12 8.11D-07.
      1 vectors produced by pass  7 Test12= 1.79D-15 1.11D-08 XBig12= 1.44D-15 1.48D-08.
 InvSVY:  IOpt=1 It=  1 EMax= 2.22D-16
 Solved reduced A of dimension    38 with     6 vectors.
 Isotropic polarizability for W=    0.000000        9.52 Bohr**3.
 End of Minotr F.D. properties file   721 does not exist.
 End of Minotr F.D. properties file   722 does not exist.
 End of Minotr F.D. properties file   788 does not exist.

 **********************************************************************

            Population analysis using the SCF Density.

 **********************************************************************

 Orbital symmetries:
       Occupied  (SG) (SG) (SG) (SG) (PI) (PI) (SG)
       Virtual   (PI) (PI) (SG) (PI) (PI) (SG) (SG) (SG) (PI) (PI)
                 (SG) (DLTA) (DLTA) (PI) (PI) (DLTA) (DLTA) (SG)
                 (PI) (PI) (SG) (SG) (SG)
 The electronic state is 1-SG.
 Alpha  occ. eigenvalues --  -19.25805 -10.30433  -1.15790  -0.57004  -0.46743
 Alpha  occ. eigenvalues --   -0.46743  -0.37145
 Alpha virt. eigenvalues --   -0.02178  -0.02178   0.26241   0.51174   0.51174
 Alpha virt. eigenvalues --    0.57521   0.74923   0.79954   0.91633   0.91633
 Alpha virt. eigenvalues --    1.37166   1.47906   1.47906   1.54042   1.54042
 Alpha virt. eigenvalues --    1.94253   1.94253   2.39579   2.59905   2.59905
 Alpha virt. eigenvalues --    2.94965   3.67315   3.90055
          Condensed to atoms (all electrons):
               1          2
     1  C    5.251715   0.573910
     2  O    0.573910   7.600464
 Mulliken charges:
               1
     1  C    0.174375
     2  O   -0.174375
 Sum of Mulliken charges =   0.00000
 Mulliken charges with hydrogens summed into heavy atoms:
               1
     1  C    0.174375
     2  O   -0.174375
 APT charges:
               1
     1  C    0.223144
     2  O   -0.223144
 Sum of APT charges =  -0.00000
 APT charges with hydrogens summed into heavy atoms:
               1
     1  C    0.223144
     2  O   -0.223144
 Electronic spatial extent (au):  <R**2>=             39.4003
 Charge=              0.0000 electrons
 Dipole moment (field-independent basis, Debye):
    X=              0.0000    Y=             -0.0000    Z=              0.0599  Tot=              0.0599
 Quadrupole moment (field-independent basis, Debye-Ang):
   XX=             -9.8673   YY=             -9.8673   ZZ=            -11.9357
   XY=              0.0000   XZ=              0.0000   YZ=              0.0000
 Traceless Quadrupole moment (field-independent basis, Debye-Ang):
   XX=              0.6895   YY=              0.6895   ZZ=             -1.3789
   XY=              0.0000   XZ=              0.0000   YZ=              0.0000
 Octapole moment (field-independent basis, Debye-Ang**2):
  XXX=              0.0000  YYY=             -0.0000  ZZZ=              5.7299  XYY=              0.0000
  XXY=             -0.0000  XXZ=              1.0709  XZZ=              0.0000  YZZ=             -0.0000
  YYZ=              1.0709  XYZ=              0.0000
 Hexadecapole moment (field-independent basis, Debye-Ang**3):
 XXXX=             -7.8298 YYYY=             -7.8298 ZZZZ=            -34.3621 XXXY=              0.0000
 XXXZ=              0.0000 YYYX=              0.0000 YYYZ=              0.0000 ZZZX=              0.0000
 ZZZY=              0.0000 XXYY=             -2.6099 XXZZ=             -6.4990 YYZZ=             -6.4990
 XXYZ=              0.0000 YYXZ=              0.0000 ZZXY=              0.0000
 N-N= 2.232156969526D+01 E-N=-3.103256756486D+02  KE= 1.123290447170D+02
 Symmetry A1   KE= 1.042143881609D+02
 Symmetry A2   KE= 7.492416847631D-33
 Symmetry B1   KE= 4.057328278031D+00
 Symmetry B2   KE= 4.057328278031D+00
  Exact polarizability:       7.981       0.000       7.981      -0.000       0.000      12.607
 Approx polarizability:      11.027       0.000      11.027      -0.000       0.000      23.210
 Calling FoFJK, ICntrl=    100127 FMM=F ISym2X=1 I1Cent= 0 IOpClX= 0 NMat=1 NMatS=1 NMatT=0.
 Full mass-weighted force constant matrix:
 Low frequencies ---   -3.6035   -3.6035   -0.0005   -0.0005    0.0015 2209.0532
 Diagonal vibrational polarizability:
        0.0000000       0.0000000       0.3747715
 Harmonic frequencies (cm**-1), IR intensities (KM/Mole), Raman scattering
 activities (A**4/AMU), depolarization ratios for plane and unpolarized
 incident light, reduced masses (AMU), force constants (mDyne/A),
 and normal coordinates:
                      1
                     SG
 Frequencies --   2209.0532
 Red. masses --     13.4388
 Frc consts  --     38.6386
 IR Inten    --     67.9588
  Atom  AN      X      Y      Z
     1   6    -0.00   0.00   0.80
     2   8     0.00  -0.00  -0.60

 -------------------
 - Thermochemistry -
 -------------------
 Temperature   298.150 Kelvin.  Pressure   1.00000 Atm.
 Atom     1 has atomic number  6 and mass  12.00000
 Atom     2 has atomic number  8 and mass  15.99491
 Molecular mass:    27.99491 amu.
 Principal axes and moments of inertia in atomic units:
                           1         2         3
     Eigenvalues --     0.00000  31.70422  31.70422
           X           -0.00000   0.09295   0.99567
           Y            0.00000   0.99567  -0.09295
           Z            1.00000   0.00000   0.00000
 This molecule is a prolate symmetric top.
 Rotational symmetry number  1.
 Rotational temperature (Kelvin)      2.73194
 Rotational constant (GHZ):          56.924326
 Zero-point vibrational energy      13213.1 (Joules/Mol)
                                    3.15800 (Kcal/Mol)
 Vibrational temperatures:   3178.33
          (Kelvin)
 
 Zero-point correction=                           0.005033 (Hartree/Particle)
 Thermal correction to Energy=                    0.007393
 Thermal correction to Enthalpy=                  0.008337
 Thermal correction to Gibbs Free Energy=        -0.014106
 Sum of electronic and zero-point Energies=           -113.304421
 Sum of electronic and thermal Energies=              -113.302060
 Sum of electronic and thermal Enthalpies=            -113.301116
 Sum of electronic and thermal Free Energies=         -113.323559
 
                     E (Thermal)             CV                S
                      KCal/Mol        Cal/Mol-Kelvin    Cal/Mol-Kelvin
 Total                    4.639              4.973             47.236
 Electronic               0.000              0.000              0.000
 Translational            0.889              2.981             35.923
 Rotational               0.592              1.987             11.312
 Vibrational              3.158              0.005              0.001
                       Q            Log10(Q)             Ln(Q)
 Total Bot       0.307763D+07          6.488217         14.939671
 Total V=0       0.635400D+09          8.803047         20.269765
 Vib (Bot)       0.484373D-02         -2.314820         -5.330070
 Vib (V=0)       0.100002D+01          0.000010          0.000023
 Electronic      0.100000D+01          0.000000          0.000000
 Translational   0.582201D+07          6.765073         15.577155
 Rotational      0.109135D+03          2.037964          4.692586
 ***** Axes restored to original set *****
 -------------------------------------------------------------------
 Center     Atomic                   Forces (Hartrees/Bohr)
 Number     Number              X              Y              Z
 -------------------------------------------------------------------
      1        6          -0.000005085    0.000000875    0.000000311
      2        8           0.000005085   -0.000000875   -0.000000311
 -------------------------------------------------------------------
 Cartesian Forces:  Max     0.000005085 RMS     0.000002985
 FormGI is forming the generalized inverse of G from B-inverse, IUseBI=4.

 GradGradGradGradGradGradGradGradGradGradGradGradGradGradGradGradGradGrad
 Berny optimization.
 Internal  Forces:  Max     0.000005169 RMS     0.000005169
 Search for a local minimum.
 Step number   1 out of a maximum of    2
 All quantities printed in internal units (Hartrees-Bohrs-Radians)
 Second derivative matrix not updated -- analytic derivatives used.
 The second derivative matrix:
                          R1
           R1           1.26616
 ITU=  0
     Eigenvalues ---    1.26616
 Angle between quadratic step and forces=   0.00 degrees.
 Linear search not attempted -- first point.
 Iteration  1 RMS(Cart)=  0.00000289 RMS(Int)=  0.00000000
 Iteration  2 RMS(Cart)=  0.00000000 RMS(Int)=  0.00000000
 ClnCor:  largest displacement from symmetrization is 9.16D-16 for atom     1.
 Variable       Old X    -DE/DX   Delta X   Delta X   Delta X     New X
                                 (Linear)    (Quad)   (Total)
    R1        2.15039   0.00001   0.00000   0.00000   0.00000   2.15039
         Item               Value     Threshold  Converged?
 Maximum Force            0.000005     0.000450     YES
 RMS     Force            0.000005     0.000300     YES
 Maximum Displacement     0.000002     0.001800     YES
 RMS     Displacement     0.000003     0.001200     YES
 Predicted change in Energy=-1.055253D-11
 Optimization completed.
    -- Stationary point found.
                           ----------------------------
                           !   Optimized Parameters   !
                           ! (Angstroms and Degrees)  !
 --------------------------                            --------------------------
 ! Name  Definition              Value          Derivative Info.                !
 --------------------------------------------------------------------------------
 ! R1    R(1,2)                  1.1379         -DE/DX =    0.0                 !
 --------------------------------------------------------------------------------
 GradGradGradGradGradGradGradGradGradGradGradGradGradGradGradGradGradGrad


 ----------------------------------------------------------------------

 Electric dipole moment (input orientation):
 (Debye = 10**-18 statcoulomb cm , SI units = C m)
                  (au)            (Debye)         (10**-30 SI)
   Tot        0.235606D-01      0.598851D-01      0.199755D+00
   x          0.231774D-01      0.589110D-01      0.196506D+00
   y         -0.398825D-02     -0.101371D-01     -0.338138D-01
   z         -0.141577D-02     -0.359852D-02     -0.120034D-01

 Dipole polarizability, Alpha (input orientation).
 (esu units = cm**3 , SI units = C**2 m**2 J**-1)
 Alpha(0;0):
               (au)            (10**-24 esu)      (10**-40 SI)
   iso        0.952269D+01      0.141112D+01      0.157008D+01
   aniso      0.462599D+01      0.685501D+00      0.762722D+00
   xx         0.124574D+02      0.184600D+01      0.205395D+01
   yx        -0.770334D+00     -0.114152D+00     -0.127011D+00
   yy         0.811325D+01      0.120226D+01      0.133769D+01
   zx        -0.273456D+00     -0.405220D-01     -0.450868D-01
   zy         0.470550D-01      0.697284D-02      0.775833D-02
   zz         0.799740D+01      0.118509D+01      0.131859D+01

 ----------------------------------------------------------------------

 Dipole orientation:
     6          1.26069886         -0.84261273          5.41045905
     8          1.26069886         -0.84261273          7.56084545

 Electric dipole moment (dipole orientation):
 (Debye = 10**-18 statcoulomb cm , SI units = C m)
                  (au)            (Debye)         (10**-30 SI)
   Tot        0.235606D-01      0.598851D-01      0.199755D+00
   x          0.000000D+00      0.000000D+00      0.000000D+00
   y          0.000000D+00      0.000000D+00      0.000000D+00
   z          0.235606D-01      0.598851D-01      0.199755D+00

 Dipole polarizability, Alpha (dipole orientation).
 (esu units = cm**3 , SI units = C**2 m**2 J**-1)
 Alpha(0;0):
               (au)            (10**-24 esu)      (10**-40 SI)
   iso        0.952269D+01      0.141112D+01      0.157008D+01
   aniso      0.462599D+01      0.685501D+00      0.762722D+00
   xx         0.798070D+01      0.118262D+01      0.131584D+01
   yx         0.000000D+00      0.000000D+00      0.000000D+00
   yy         0.798070D+01      0.118262D+01      0.131584D+01
   zx         0.000000D+00      0.000000D+00      0.000000D+00
   zy         0.000000D+00      0.000000D+00      0.000000D+00
   zz         0.126067D+02      0.186812D+01      0.207856D+01

 ----------------------------------------------------------------------
 Unable to Open any file for archive entry.
 1\1\GINC-NODE7-IB\Freq\RB3LYP\6-31G(d,p)\C1O1\CHESAGAR\04-Nov-2021\0\\
 #N Geom=AllCheck Guess=TCheck SCRF=Check GenChk RB3LYP/6-31G(d,p) Freq
 \\Title Card Required\\0,1\C,2.7177754954,-0.7987561792,-0.903805492\O
 ,3.8372025046,-0.9913818208,-0.972184508\\Version=ES64L-G16RevC.01\Sta
 te=1-SG\HF=-113.3094531\RMSD=4.903e-09\RMSF=2.985e-06\ZeroPoint=0.0050
 326\Thermal=0.0073933\ETot=-113.3020598\HTot=-113.3011157\GTot=-113.32
 35589\Dipole=0.0231774,-0.0039883,-0.0014158\DipoleDeriv=0.6686766,-0.
 1169472,-0.0415144,-0.1169472,0.0091718,0.0071436,-0.0415144,0.0071436
 ,-0.008416,-0.6686766,0.1169472,0.0415144,0.1169472,-0.0091718,-0.0071
 436,0.0415144,-0.0071436,0.008416\Polar=12.4574257,-0.770334,8.1132524
 ,-0.2734562,0.047055,7.9974008\Quadrupole=-0.9755759,0.468532,0.507043
 9,0.2560776,0.0909034,-0.0156422\PG=C*V [C*(C1O1)]\NImag=0\\1.22530460
 ,-0.21084513,0.03627785,-0.07484664,0.01287925,0.00456856,-1.22530460,
 0.21084513,0.07484664,1.22530460,0.21084513,-0.03627785,-0.01287925,-0
 .21084513,0.03627785,0.07484664,-0.01287925,-0.00456856,-0.07484664,0.
 01287925,0.00456856\\0.00000509,-0.00000088,-0.00000031,-0.00000509,0.
 00000088,0.00000031\\\@
 The archive entry for this job was punched.


 THERE ARE TWO THINGS THAT EVERYBODY THINKS THEY CAN DO BETTER THAN
 ANYONE ELSE - PUNCH THE FIRE, AND EDIT A DAILY PAPER.
 -- UNCLE ESEK, "CENTURY MAGAZINE", 1885
 Job cpu time:       0 days  0 hours  0 minutes 22.9 seconds.
 Elapsed time:       0 days  0 hours  0 minutes  2.0 seconds.
 File lengths (MBytes):  RWF=     17 Int=      0 D2E=      0 Chk=      2 Scr=      2
 Normal termination of Gaussian 16 at Thu Nov  4 11:39:08 2021.
