 Entering Gaussian System, Link 0=g16
 Initial command:
 /home/chesagar/softwares/G16_AVX2//g16/l1.exe "/home/chesagar/scratch/4461.raman-ib/Gau-97907.inp" -scrdir="/home/chesagar/scratch/4461.raman-ib/"
 Entering Link 1 = /home/chesagar/softwares/G16_AVX2//g16/l1.exe PID=     97908.
  
 Copyright (c) 1988-2019, Gaussian, Inc.  All Rights Reserved.
  
 This is part of the Gaussian(R) 16 program.  It is based on
 the Gaussian(R) 09 system (copyright 2009, Gaussian, Inc.),
 the Gaussian(R) 03 system (copyright 2003, Gaussian, Inc.),
 the Gaussian(R) 98 system (copyright 1998, Gaussian, Inc.),
 the Gaussian(R) 94 system (copyright 1995, Gaussian, Inc.),
 the Gaussian 92(TM) system (copyright 1992, Gaussian, Inc.),
 the Gaussian 90(TM) system (copyright 1990, Gaussian, Inc.),
 the Gaussian 88(TM) system (copyright 1988, Gaussian, Inc.),
 the Gaussian 86(TM) system (copyright 1986, Carnegie Mellon
 University), and the Gaussian 82(TM) system (copyright 1983,
 Carnegie Mellon University). Gaussian is a federally registered
 trademark of Gaussian, Inc.
  
 This software contains proprietary and confidential information,
 including trade secrets, belonging to Gaussian, Inc.
  
 This software is provided under written license and may be
 used, copied, transmitted, or stored only in accord with that
 written license.
  
 The following legend is applicable only to US Government
 contracts under FAR:
  
                    RESTRICTED RIGHTS LEGEND
  
 Use, reproduction and disclosure by the US Government is
 subject to restrictions as set forth in subparagraphs (a)
 and (c) of the Commercial Computer Software - Restricted
 Rights clause in FAR 52.227-19.
  
 Gaussian, Inc.
 340 Quinnipiac St., Bldg. 40, Wallingford CT 06492
  
  
 ---------------------------------------------------------------
 Warning -- This program may not be used in any manner that
 competes with the business of Gaussian, Inc. or will provide
 assistance to any competitor of Gaussian, Inc.  The licensee
 of this program is prohibited from giving any competitor of
 Gaussian, Inc. access to this program.  By using this program,
 the user acknowledges that Gaussian, Inc. is engaged in the
 business of creating and licensing software in the field of
 computational chemistry and represents and warrants to the
 licensee that it is not a competitor of Gaussian, Inc. and that
 it will not use this program in any manner prohibited above.
 ---------------------------------------------------------------
  

 Cite this work as:
 Gaussian 16, Revision C.01,
 M. J. Frisch, G. W. Trucks, H. B. Schlegel, G. E. Scuseria, 
 M. A. Robb, J. R. Cheeseman, G. Scalmani, V. Barone, 
 G. A. Petersson, H. Nakatsuji, X. Li, M. Caricato, A. V. Marenich, 
 J. Bloino, B. G. Janesko, R. Gomperts, B. Mennucci, H. P. Hratchian, 
 J. V. Ortiz, A. F. Izmaylov, J. L. Sonnenberg, D. Williams-Young, 
 F. Ding, F. Lipparini, F. Egidi, J. Goings, B. Peng, A. Petrone, 
 T. Henderson, D. Ranasinghe, V. G. Zakrzewski, J. Gao, N. Rega, 
 G. Zheng, W. Liang, M. Hada, M. Ehara, K. Toyota, R. Fukuda, 
 J. Hasegawa, M. Ishida, T. Nakajima, Y. Honda, O. Kitao, H. Nakai, 
 T. Vreven, K. Throssell, J. A. Montgomery, Jr., J. E. Peralta, 
 F. Ogliaro, M. J. Bearpark, J. J. Heyd, E. N. Brothers, K. N. Kudin, 
 V. N. Staroverov, T. A. Keith, R. Kobayashi, J. Normand, 
 K. Raghavachari, A. P. Rendell, J. C. Burant, S. S. Iyengar, 
 J. Tomasi, M. Cossi, J. M. Millam, M. Klene, C. Adamo, R. Cammi, 
 J. W. Ochterski, R. L. Martin, K. Morokuma, O. Farkas, 
 J. B. Foresman, and D. J. Fox, Gaussian, Inc., Wallingford CT, 2019.
 
 ******************************************
 Gaussian 16:  ES64L-G16RevC.01  3-Jul-2019
                 4-Nov-2021 
 ******************************************
 %nprocshared=16
 Will use up to   16 processors via shared memory.
 %chk=H2S.chk
 %mem=8GB
 ---------------------------
 # opt freq b3lyp/6-31G(d,p)
 ---------------------------
 1/18=20,19=15,26=3,38=1/1,3;
 2/9=110,12=2,17=6,18=5,40=1/2;
 3/5=1,6=6,7=101,11=2,25=1,30=1,71=1,74=-5/1,2,3;
 4//1;
 5/5=2,38=5/2;
 6/7=2,8=2,9=2,10=2,28=1/1;
 7//1,2,3,16;
 1/18=20,19=15,26=3/3(2);
 2/9=110/2;
 99//99;
 2/9=110/2;
 3/5=1,6=6,7=101,11=2,25=1,30=1,71=1,74=-5/1,2,3;
 4/5=5,16=3,69=1/1;
 5/5=2,38=5/2;
 7//1,2,3,16;
 1/18=20,19=15,26=3/3(-5);
 2/9=110/2;
 6/7=2,8=2,9=2,10=2,19=2,28=1/1;
 99/9=1/99;
 -------------------
 Title Card Required
 -------------------
 Symbolic Z-matrix:
 Charge =  0 Multiplicity = 1
 16                    2.30825  -1.1061   -2.4218 
 1                     2.76775  -0.11287  -3.21104 
 1                     1.00502  -0.82254  -2.69624 
 

 GradGradGradGradGradGradGradGradGradGradGradGradGradGradGradGradGradGrad
 Berny optimization.
 Initialization pass.
                           ----------------------------
                           !    Initial Parameters    !
                           ! (Angstroms and Degrees)  !
 --------------------------                            --------------------------
 ! Name  Definition              Value          Derivative Info.                !
 --------------------------------------------------------------------------------
 ! R1    R(1,2)                  1.3493         estimate D2E/DX2                !
 ! R2    R(1,3)                  1.3617         estimate D2E/DX2                !
 ! A1    A(2,1,3)               93.1387         estimate D2E/DX2                !
 --------------------------------------------------------------------------------
 Trust Radius=3.00D-01 FncErr=1.00D-07 GrdErr=1.00D-06 EigMax=2.50D+02 EigMin=1.00D-04
 Number of steps in this run=     20 maximum allowed number of steps=    100.
 GradGradGradGradGradGradGradGradGradGradGradGradGradGradGradGradGradGrad

                          Input orientation:                          
 ---------------------------------------------------------------------
 Center     Atomic      Atomic             Coordinates (Angstroms)
 Number     Number       Type             X           Y           Z
 ---------------------------------------------------------------------
      1         16           0        2.308252   -1.106096   -2.421799
      2          1           0        2.767752   -0.112872   -3.211038
      3          1           0        1.005016   -0.822536   -2.696242
 ---------------------------------------------------------------------
                    Distance matrix (angstroms):
                    1          2          3
     1  S    0.000000
     2  H    1.349271   0.000000
     3  H    1.361672   1.968724   0.000000
 Stoichiometry    H2S
 Framework group  CS[SG(H2S)]
 Deg. of freedom     3
 Full point group                 CS      NOp   2
 Largest Abelian subgroup         CS      NOp   2
 Largest concise Abelian subgroup C1      NOp   1
                         Standard orientation:                         
 ---------------------------------------------------------------------
 Center     Atomic      Atomic             Coordinates (Angstroms)
 Number     Number       Type             X           Y           Z
 ---------------------------------------------------------------------
      1         16           0       -0.000000    0.103541    0.000000
      2          1           0        0.984321   -0.819305   -0.000000
      3          1           0       -0.984321   -0.837343   -0.000000
 ---------------------------------------------------------------------
 Rotational constants (GHZ):         307.0996152         258.6407629         140.3974011
 Standard basis: 6-31G(d,p) (6D, 7F)
 There are    22 symmetry adapted cartesian basis functions of A'  symmetry.
 There are     7 symmetry adapted cartesian basis functions of A"  symmetry.
 There are    22 symmetry adapted basis functions of A'  symmetry.
 There are     7 symmetry adapted basis functions of A"  symmetry.
    29 basis functions,    66 primitive gaussians,    29 cartesian basis functions
     9 alpha electrons        9 beta electrons
       nuclear repulsion energy        12.7618821824 Hartrees.
 NAtoms=    3 NActive=    3 NUniq=    3 SFac= 1.00D+00 NAtFMM=   60 NAOKFM=F Big=F
 Integral buffers will be    131072 words long.
 Raffenetti 2 integral format.
 Two-electron integral symmetry is turned on.
 One-electron integrals computed using PRISM.
 NBasis=    29 RedAO= T EigKep=  1.46D-02  NBF=    22     7
 NBsUse=    29 1.00D-06 EigRej= -1.00D+00 NBFU=    22     7
 ExpMin= 1.17D-01 ExpMax= 2.19D+04 ExpMxC= 3.30D+03 IAcc=3 IRadAn=         5 AccDes= 0.00D+00
 Harris functional with IExCor=  402 and IRadAn=       5 diagonalized for initial guess.
 HarFok:  IExCor=  402 AccDes= 0.00D+00 IRadAn=         5 IDoV= 1 UseB2=F ITyADJ=14
 ICtDFT=  3500011 ScaDFX=  1.000000  1.000000  1.000000  1.000000
 FoFCou: FMM=F IPFlag=           0 FMFlag=      100000 FMFlg1=           0
         NFxFlg=           0 DoJE=T BraDBF=F KetDBF=T FulRan=T
         wScrn=  0.000000 ICntrl=       500 IOpCl=  0 I1Cent=   200000004 NGrid=           0
         NMat0=    1 NMatS0=      1 NMatT0=    0 NMatD0=    1 NMtDS0=    0 NMtDT0=    0
 Petite list used in FoFCou.
 Initial guess orbital symmetries:
       Occupied  (A') (A') (A') (A') (A") (A') (A') (A') (A")
       Virtual   (A') (A') (A') (A') (A') (A") (A') (A') (A") (A")
                 (A') (A') (A') (A') (A") (A") (A') (A') (A') (A')
 The electronic state of the initial guess is 1-A'.
 Keep R1 ints in memory in symmetry-blocked form, NReq=13913574.
 Requested convergence on RMS density matrix=1.00D-08 within 128 cycles.
 Requested convergence on MAX density matrix=1.00D-06.
 Requested convergence on             energy=1.00D-06.
 No special actions if energy rises.
 Integral accuracy reduced to 1.0D-05 until final iterations.
 Initial convergence to 1.0D-05 achieved.  Increase integral accuracy.
 SCF Done:  E(RB3LYP) =  -399.391523599     A.U. after    9 cycles
            NFock=  9  Conv=0.71D-08     -V/T= 2.0034

 **********************************************************************

            Population analysis using the SCF Density.

 **********************************************************************

 Orbital symmetries:
       Occupied  (A') (A') (A') (A') (A") (A') (A') (A') (A")
       Virtual   (A') (A') (A') (A') (A') (A") (A') (A') (A") (A")
                 (A') (A') (A') (A') (A") (A") (A') (A') (A') (A')
 The electronic state is 1-A'.
 Alpha  occ. eigenvalues --  -88.88838  -7.95175  -5.91652  -5.91330  -5.90613
 Alpha  occ. eigenvalues --   -0.74474  -0.44879  -0.36635  -0.26170
 Alpha virt. eigenvalues --    0.01984   0.05451   0.31293   0.32908   0.34504
 Alpha virt. eigenvalues --    0.36506   0.67530   0.69538   0.73512   0.74635
 Alpha virt. eigenvalues --    0.75222   1.00573   1.16730   1.98119   2.03162
 Alpha virt. eigenvalues --    2.10980   2.16392   2.65904   2.78816   3.99998
          Condensed to atoms (all electrons):
               1          2          3
     1  S   15.599915   0.282467   0.282615
     2  H    0.282467   0.650420  -0.015349
     3  H    0.282615  -0.015349   0.650199
 Mulliken charges:
               1
     1  S   -0.164997
     2  H    0.082462
     3  H    0.082535
 Sum of Mulliken charges =  -0.00000
 Mulliken charges with hydrogens summed into heavy atoms:
               1
     1  S   -0.000000
 Electronic spatial extent (au):  <R**2>=             43.7968
 Charge=              0.0000 electrons
 Dipole moment (field-independent basis, Debye):
    X=              0.0108    Y=             -1.3971    Z=             -0.0000  Tot=              1.3972
 Quadrupole moment (field-independent basis, Debye-Ang):
   XX=            -12.1465   YY=            -13.5184   ZZ=            -16.5199
   XY=              0.0160   XZ=              0.0000   YZ=             -0.0000
 Traceless Quadrupole moment (field-independent basis, Debye-Ang):
   XX=              1.9151   YY=              0.5432   ZZ=             -2.4583
   XY=              0.0160   XZ=              0.0000   YZ=             -0.0000
 Octapole moment (field-independent basis, Debye-Ang**2):
  XXX=              0.0371  YYY=             -1.5694  ZZZ=             -0.0000  XYY=             -0.0070
  XXY=             -1.0697  XXZ=             -0.0000  XZZ=              0.0164  YZZ=             -0.5698
  YYZ=             -0.0000  XYZ=              0.0000
 Hexadecapole moment (field-independent basis, Debye-Ang**3):
 XXXX=            -22.1716 YYYY=            -23.8672 ZZZZ=            -22.8731 XXXY=             -0.0398
 XXXZ=              0.0000 YYYX=             -0.0225 YYYZ=             -0.0000 ZZZX=              0.0000
 ZZZY=             -0.0000 XXYY=             -6.7794 XXZZ=             -7.8267 YYZZ=             -8.0037
 XXYZ=             -0.0000 YYXZ=              0.0000 ZZXY=             -0.0208
 N-N= 1.276188218235D+01 E-N=-9.744352244058D+02  KE= 3.980551037028D+02
 Symmetry A'   KE= 3.595124469628D+02
 Symmetry A"   KE= 3.854265673994D+01
 Calling FoFJK, ICntrl=      2127 FMM=F ISym2X=1 I1Cent= 0 IOpClX= 0 NMat=1 NMatS=1 NMatT=0.
 ***** Axes restored to original set *****
 -------------------------------------------------------------------
 Center     Atomic                   Forces (Hartrees/Bohr)
 Number     Number              X              Y              Z
 -------------------------------------------------------------------
      1       16          -0.005898267    0.001370789   -0.001312955
      2        1          -0.000913823   -0.000433271    0.000319859
      3        1           0.006812090   -0.000937518    0.000993096
 -------------------------------------------------------------------
 Cartesian Forces:  Max     0.006812090 RMS     0.003123163

 GradGradGradGradGradGradGradGradGradGradGradGradGradGradGradGradGradGrad
 Berny optimization.
 FormGI is forming the generalized inverse of G from B-inverse, IUseBI=4.
 Internal  Forces:  Max     0.006915438 RMS     0.004142001
 Search for a local minimum.
 Step number   1 out of a maximum of   20
 All quantities printed in internal units (Hartrees-Bohrs-Radians)
 Mixed Optimization -- RFO/linear search
 Second derivative matrix not updated -- first step.
 The second derivative matrix:
                          R1        R2        A1
           R1           0.25694
           R2           0.00000   0.24762
           A1           0.00000   0.00000   0.16000
 ITU=  0
     Eigenvalues ---    0.16000   0.24762   0.25694
 RFO step:  Lambda=-2.14150380D-04 EMin= 1.60000000D-01
 Linear search not attempted -- first point.
 Iteration  1 RMS(Cart)=  0.01837853 RMS(Int)=  0.00006760
 Iteration  2 RMS(Cart)=  0.00006676 RMS(Int)=  0.00000000
 Iteration  3 RMS(Cart)=  0.00000000 RMS(Int)=  0.00000000
 ClnCor:  largest displacement from symmetrization is 4.20D-15 for atom     2.
 Variable       Old X    -DE/DX   Delta X   Delta X   Delta X     New X
                                 (Linear)    (Quad)   (Total)
    R1        2.54975  -0.00082   0.00000  -0.00318  -0.00318   2.54658
    R2        2.57319  -0.00692   0.00000  -0.02790  -0.02790   2.54528
    A1        1.62558  -0.00173   0.00000  -0.01077  -0.01077   1.61481
         Item               Value     Threshold  Converged?
 Maximum Force            0.006915     0.000450     NO 
 RMS     Force            0.004142     0.000300     NO 
 Maximum Displacement     0.024430     0.001800     NO 
 RMS     Displacement     0.018352     0.001200     NO 
 Predicted change in Energy=-1.071722D-04
 GradGradGradGradGradGradGradGradGradGradGradGradGradGradGradGradGradGrad

                          Input orientation:                          
 ---------------------------------------------------------------------
 Center     Atomic      Atomic             Coordinates (Angstroms)
 Number     Number       Type             X           Y           Z
 ---------------------------------------------------------------------
      1         16           0        2.304010   -1.107589   -2.420734
      2          1           0        2.759066   -0.114582   -3.209949
      3          1           0        1.017944   -0.819332   -2.698396
 ---------------------------------------------------------------------
                    Distance matrix (angstroms):
                    1          2          3
     1  S    0.000000
     2  H    1.347590   0.000000
     3  H    1.346905   1.946758   0.000000
 Stoichiometry    H2S
 Framework group  CS[SG(H2S)]
 Deg. of freedom     3
 Full point group                 CS      NOp   2
 Largest Abelian subgroup         CS      NOp   2
 Largest concise Abelian subgroup C1      NOp   1
                         Standard orientation:                         
 ---------------------------------------------------------------------
 Center     Atomic      Atomic             Coordinates (Angstroms)
 Number     Number       Type             X           Y           Z
 ---------------------------------------------------------------------
      1         16           0       -0.000000    0.103495   -0.000000
      2          1           0        0.973379   -0.828456    0.000000
      3          1           0       -0.973379   -0.827466    0.000000
 ---------------------------------------------------------------------
 Rotational constants (GHZ):         307.2059423         264.6290854         142.1662256
 Standard basis: 6-31G(d,p) (6D, 7F)
 There are    22 symmetry adapted cartesian basis functions of A'  symmetry.
 There are     7 symmetry adapted cartesian basis functions of A"  symmetry.
 There are    22 symmetry adapted basis functions of A'  symmetry.
 There are     7 symmetry adapted basis functions of A"  symmetry.
    29 basis functions,    66 primitive gaussians,    29 cartesian basis functions
     9 alpha electrons        9 beta electrons
       nuclear repulsion energy        12.8409112465 Hartrees.
 NAtoms=    3 NActive=    3 NUniq=    3 SFac= 1.00D+00 NAtFMM=   60 NAOKFM=F Big=F
 Integral buffers will be    131072 words long.
 Raffenetti 2 integral format.
 Two-electron integral symmetry is turned on.
 One-electron integrals computed using PRISM.
 NBasis=    29 RedAO= T EigKep=  1.46D-02  NBF=    22     7
 NBsUse=    29 1.00D-06 EigRej= -1.00D+00 NBFU=    22     7
 Initial guess from the checkpoint file:  "H2S.chk"
 B after Tr=     0.000000    0.000000   -0.000000
         Rot=    0.999996    0.000000    0.000000    0.002679 Ang=   0.31 deg.
 Initial guess orbital symmetries:
       Occupied  (A') (A') (A') (A') (A") (A') (A') (A') (A")
       Virtual   (A') (A') (A') (A') (A') (A") (A') (A') (A") (A")
                 (A') (A') (A') (A') (A") (A") (A') (A') (A') (A')
 ExpMin= 1.17D-01 ExpMax= 2.19D+04 ExpMxC= 3.30D+03 IAcc=3 IRadAn=         5 AccDes= 0.00D+00
 Harris functional with IExCor=  402 and IRadAn=       5 diagonalized for initial guess.
 HarFok:  IExCor=  402 AccDes= 0.00D+00 IRadAn=         5 IDoV= 1 UseB2=F ITyADJ=14
 ICtDFT=  3500011 ScaDFX=  1.000000  1.000000  1.000000  1.000000
 FoFCou: FMM=F IPFlag=           0 FMFlag=      100000 FMFlg1=           0
         NFxFlg=           0 DoJE=T BraDBF=F KetDBF=T FulRan=T
         wScrn=  0.000000 ICntrl=       500 IOpCl=  0 I1Cent=   200000004 NGrid=           0
         NMat0=    1 NMatS0=      1 NMatT0=    0 NMatD0=    1 NMtDS0=    0 NMtDT0=    0
 Petite list used in FoFCou.
 Keep R1 ints in memory in symmetry-blocked form, NReq=13913574.
 Requested convergence on RMS density matrix=1.00D-08 within 128 cycles.
 Requested convergence on MAX density matrix=1.00D-06.
 Requested convergence on             energy=1.00D-06.
 No special actions if energy rises.
 Integral accuracy reduced to 1.0D-05 until final iterations.
 Initial convergence to 1.0D-05 achieved.  Increase integral accuracy.
 SCF Done:  E(RB3LYP) =  -399.391623329     A.U. after    9 cycles
            NFock=  9  Conv=0.29D-08     -V/T= 2.0033
 Calling FoFJK, ICntrl=      2127 FMM=F ISym2X=1 I1Cent= 0 IOpClX= 0 NMat=1 NMatS=1 NMatT=0.
 ***** Axes restored to original set *****
 -------------------------------------------------------------------
 Center     Atomic                   Forces (Hartrees/Bohr)
 Number     Number              X              Y              Z
 -------------------------------------------------------------------
      1       16           0.000268702    0.000027943   -0.000013445
      2        1           0.000200486    0.000016064   -0.000006154
      3        1          -0.000469188   -0.000044007    0.000019600
 -------------------------------------------------------------------
 Cartesian Forces:  Max     0.000469188 RMS     0.000193250

 GradGradGradGradGradGradGradGradGradGradGradGradGradGradGradGradGradGrad
 Berny optimization.
 Using GEDIIS/GDIIS optimizer.
 FormGI is forming the generalized inverse of G from B-inverse, IUseBI=4.
 Internal  Forces:  Max     0.000466726 RMS     0.000371295
 Search for a local minimum.
 Step number   2 out of a maximum of   20
 All quantities printed in internal units (Hartrees-Bohrs-Radians)
 Mixed Optimization -- En-DIIS/RFO-DIIS
 Update second derivatives using D2CorX and points    1    2
 DE= -9.97D-05 DEPred=-1.07D-04 R= 9.31D-01
 TightC=F SS=  1.41D+00  RLast= 3.01D-02 DXNew= 5.0454D-01 9.0237D-02
 Trust test= 9.31D-01 RLast= 3.01D-02 DXMaxT set to 3.00D-01
 The second derivative matrix:
                          R1        R2        A1
           R1           0.25733
           R2           0.00221   0.25777
           A1           0.00195   0.01393   0.16688
 ITU=  1  0
 Use linear search instead of GDIIS.
     Eigenvalues ---    0.16476   0.25584   0.26138
 RFO step:  Lambda=-6.21255429D-07 EMin= 1.64760107D-01
 Quartic linear search produced a step of -0.07282.
 Iteration  1 RMS(Cart)=  0.00257789 RMS(Int)=  0.00000189
 Iteration  2 RMS(Cart)=  0.00000133 RMS(Int)=  0.00000000
 Iteration  3 RMS(Cart)=  0.00000000 RMS(Int)=  0.00000000
 ClnCor:  largest displacement from symmetrization is 2.89D-15 for atom     3.
 Variable       Old X    -DE/DX   Delta X   Delta X   Delta X     New X
                                 (Linear)    (Quad)   (Total)
    R1        2.54658   0.00008   0.00023   0.00005   0.00028   2.54686
    R2        2.54528   0.00043   0.00203  -0.00056   0.00147   2.54676
    A1        1.61481   0.00047   0.00078   0.00185   0.00263   1.61744
         Item               Value     Threshold  Converged?
 Maximum Force            0.000467     0.000450     NO 
 RMS     Force            0.000371     0.000300     NO 
 Maximum Displacement     0.002809     0.001800     NO 
 RMS     Displacement     0.002578     0.001200     NO 
 Predicted change in Energy=-9.677155D-07
 GradGradGradGradGradGradGradGradGradGradGradGradGradGradGradGradGradGrad

                          Input orientation:                          
 ---------------------------------------------------------------------
 Center     Atomic      Atomic             Coordinates (Angstroms)
 Number     Number       Type             X           Y           Z
 ---------------------------------------------------------------------
      1         16           0        2.303924   -1.107068   -2.421159
      2          1           0        2.760553   -0.114351   -3.210086
      3          1           0        1.016544   -0.820085   -2.697834
 ---------------------------------------------------------------------
                    Distance matrix (angstroms):
                    1          2          3
     1  S    0.000000
     2  H    1.347740   0.000000
     3  H    1.347686   1.949879   0.000000
 Stoichiometry    H2S
 Framework group  CS[SG(H2S)]
 Deg. of freedom     3
 Full point group                 CS      NOp   2
 Largest Abelian subgroup         CS      NOp   2
 Largest concise Abelian subgroup C1      NOp   1
                         Standard orientation:                         
 ---------------------------------------------------------------------
 Center     Atomic      Atomic             Coordinates (Angstroms)
 Number     Number       Type             X           Y           Z
 ---------------------------------------------------------------------
      1         16           0       -0.000000    0.103388   -0.000000
      2          1           0        0.974940   -0.827146    0.000000
      3          1           0       -0.974940   -0.827068    0.000000
 ---------------------------------------------------------------------
 Rotational constants (GHZ):         307.8396835         263.7828857         142.0567424
 Standard basis: 6-31G(d,p) (6D, 7F)
 There are    22 symmetry adapted cartesian basis functions of A'  symmetry.
 There are     7 symmetry adapted cartesian basis functions of A"  symmetry.
 There are    22 symmetry adapted basis functions of A'  symmetry.
 There are     7 symmetry adapted basis functions of A"  symmetry.
    29 basis functions,    66 primitive gaussians,    29 cartesian basis functions
     9 alpha electrons        9 beta electrons
       nuclear repulsion energy        12.8361380078 Hartrees.
 NAtoms=    3 NActive=    3 NUniq=    3 SFac= 1.00D+00 NAtFMM=   60 NAOKFM=F Big=F
 Integral buffers will be    131072 words long.
 Raffenetti 2 integral format.
 Two-electron integral symmetry is turned on.
 One-electron integrals computed using PRISM.
 NBasis=    29 RedAO= T EigKep=  1.46D-02  NBF=    22     7
 NBsUse=    29 1.00D-06 EigRej= -1.00D+00 NBFU=    22     7
 Initial guess from the checkpoint file:  "H2S.chk"
 B after Tr=     0.000000   -0.000000    0.000000
         Rot=    1.000000   -0.000000    0.000000   -0.000129 Ang=  -0.01 deg.
 Initial guess orbital symmetries:
       Occupied  (A') (A') (A') (A') (A") (A') (A') (A') (A")
       Virtual   (A') (A') (A') (A') (A') (A") (A') (A') (A") (A")
                 (A') (A') (A') (A') (A") (A") (A') (A') (A') (A')
 Keep R1 ints in memory in symmetry-blocked form, NReq=13913574.
 Requested convergence on RMS density matrix=1.00D-08 within 128 cycles.
 Requested convergence on MAX density matrix=1.00D-06.
 Requested convergence on             energy=1.00D-06.
 No special actions if energy rises.
 SCF Done:  E(RB3LYP) =  -399.391624255     A.U. after    6 cycles
            NFock=  6  Conv=0.37D-08     -V/T= 2.0033
 Calling FoFJK, ICntrl=      2127 FMM=F ISym2X=1 I1Cent= 0 IOpClX= 0 NMat=1 NMatS=1 NMatT=0.
 ***** Axes restored to original set *****
 -------------------------------------------------------------------
 Center     Atomic                   Forces (Hartrees/Bohr)
 Number     Number              X              Y              Z
 -------------------------------------------------------------------
      1       16           0.000023565   -0.000001560    0.000002071
      2        1          -0.000012705   -0.000007865    0.000005939
      3        1          -0.000010860    0.000009424   -0.000008010
 -------------------------------------------------------------------
 Cartesian Forces:  Max     0.000023565 RMS     0.000011013

 GradGradGradGradGradGradGradGradGradGradGradGradGradGradGradGradGradGrad
 Berny optimization.
 Using GEDIIS/GDIIS optimizer.
 FormGI is forming the generalized inverse of G from B-inverse, IUseBI=4.
 Internal  Forces:  Max     0.000021946 RMS     0.000016957
 Search for a local minimum.
 Step number   3 out of a maximum of   20
 All quantities printed in internal units (Hartrees-Bohrs-Radians)
 Mixed Optimization -- En-DIIS/RFO-DIIS
 Swapping is turned off.
 Update second derivatives using D2CorX and points    1    2    3
 DE= -9.25D-07 DEPred=-9.68D-07 R= 9.56D-01
 Trust test= 9.56D-01 RLast= 3.03D-03 DXMaxT set to 3.00D-01
 The second derivative matrix:
                          R1        R2        A1
           R1           0.25858
           R2           0.00472   0.25569
           A1           0.00630   0.01600   0.17610
 ITU=  0  1  0
     Eigenvalues ---    0.17268   0.25302   0.26467
 En-DIIS/RFO-DIIS/Sim-DIIS IScMMF=       -3 using points:     3    2
 RFO step:  Lambda= 0.00000000D+00.
 DidBck=F Rises=F RFO-DIIS coefs:    0.97183    0.02817
 Iteration  1 RMS(Cart)=  0.00011066 RMS(Int)=  0.00000000
 Iteration  2 RMS(Cart)=  0.00000000 RMS(Int)=  0.00000000
 ClnCor:  largest displacement from symmetrization is 9.99D-16 for atom     2.
 Variable       Old X    -DE/DX   Delta X   Delta X   Delta X     New X
                                 (Linear)    (Quad)   (Total)
    R1        2.54686  -0.00001  -0.00001  -0.00004  -0.00005   2.54681
    R2        2.54676   0.00001  -0.00004   0.00011   0.00006   2.54682
    A1        1.61744  -0.00002  -0.00007  -0.00005  -0.00013   1.61731
         Item               Value     Threshold  Converged?
 Maximum Force            0.000022     0.000450     YES
 RMS     Force            0.000017     0.000300     YES
 Maximum Displacement     0.000125     0.001800     YES
 RMS     Displacement     0.000111     0.001200     YES
 Predicted change in Energy=-2.201944D-09
 Optimization completed.
    -- Stationary point found.
                           ----------------------------
                           !   Optimized Parameters   !
                           ! (Angstroms and Degrees)  !
 --------------------------                            --------------------------
 ! Name  Definition              Value          Derivative Info.                !
 --------------------------------------------------------------------------------
 ! R1    R(1,2)                  1.3477         -DE/DX =    0.0                 !
 ! R2    R(1,3)                  1.3477         -DE/DX =    0.0                 !
 ! A1    A(2,1,3)               92.6723         -DE/DX =    0.0                 !
 --------------------------------------------------------------------------------
 GradGradGradGradGradGradGradGradGradGradGradGradGradGradGradGradGradGrad

                          Input orientation:                          
 ---------------------------------------------------------------------
 Center     Atomic      Atomic             Coordinates (Angstroms)
 Number     Number       Type             X           Y           Z
 ---------------------------------------------------------------------
      1         16           0        2.303924   -1.107068   -2.421159
      2          1           0        2.760553   -0.114351   -3.210086
      3          1           0        1.016544   -0.820085   -2.697834
 ---------------------------------------------------------------------
                    Distance matrix (angstroms):
                    1          2          3
     1  S    0.000000
     2  H    1.347740   0.000000
     3  H    1.347686   1.949879   0.000000
 Stoichiometry    H2S
 Framework group  CS[SG(H2S)]
 Deg. of freedom     3
 Full point group                 CS      NOp   2
 Largest Abelian subgroup         CS      NOp   2
 Largest concise Abelian subgroup C1      NOp   1
                         Standard orientation:                         
 ---------------------------------------------------------------------
 Center     Atomic      Atomic             Coordinates (Angstroms)
 Number     Number       Type             X           Y           Z
 ---------------------------------------------------------------------
      1         16           0        0.000000    0.103388   -0.000000
      2          1           0        0.974940   -0.827146    0.000000
      3          1           0       -0.974940   -0.827068   -0.000000
 ---------------------------------------------------------------------
 Rotational constants (GHZ):         307.8396835         263.7828857         142.0567424

 **********************************************************************

            Population analysis using the SCF Density.

 **********************************************************************

 Orbital symmetries:
       Occupied  (A') (A') (A') (A') (A") (A') (A') (A') (A")
       Virtual   (A') (A') (A') (A') (A') (A") (A') (A') (A") (A")
                 (A') (A') (A') (A') (A") (A") (A') (A') (A') (A')
 The electronic state is 1-A'.
 Alpha  occ. eigenvalues --  -88.88746  -7.95118  -5.91591  -5.91271  -5.90555
 Alpha  occ. eigenvalues --   -0.74646  -0.44954  -0.36726  -0.26180
 Alpha virt. eigenvalues --    0.02117   0.05769   0.31262   0.32709   0.34524
 Alpha virt. eigenvalues --    0.36509   0.67450   0.69408   0.73479   0.74550
 Alpha virt. eigenvalues --    0.75469   1.01204   1.17467   1.98336   2.03304
 Alpha virt. eigenvalues --    2.11397   2.16721   2.67555   2.79880   4.00169
          Condensed to atoms (all electrons):
               1          2          3
     1  S   15.597710   0.283090   0.283089
     2  H    0.283090   0.650796  -0.015830
     3  H    0.283089  -0.015830   0.650797
 Mulliken charges:
               1
     1  S   -0.163889
     2  H    0.081945
     3  H    0.081944
 Sum of Mulliken charges =  -0.00000
 Mulliken charges with hydrogens summed into heavy atoms:
               1
     1  S   -0.000000
 Electronic spatial extent (au):  <R**2>=             43.6327
 Charge=              0.0000 electrons
 Dipole moment (field-independent basis, Debye):
    X=             -0.0000    Y=             -1.3990    Z=              0.0000  Tot=              1.3990
 Quadrupole moment (field-independent basis, Debye-Ang):
   XX=            -12.1633   YY=            -13.4980   ZZ=            -16.5021
   XY=             -0.0001   XZ=              0.0000   YZ=              0.0000
 Traceless Quadrupole moment (field-independent basis, Debye-Ang):
   XX=              1.8912   YY=              0.5565   ZZ=             -2.4476
   XY=             -0.0001   XZ=              0.0000   YZ=              0.0000
 Octapole moment (field-independent basis, Debye-Ang**2):
  XXX=             -0.0002  YYY=             -1.6009  ZZZ=             -0.0000  XYY=              0.0000
  XXY=             -1.0484  XXZ=             -0.0000  XZZ=             -0.0001  YZZ=             -0.5832
  YYZ=             -0.0000  XYZ=             -0.0000
 Hexadecapole moment (field-independent basis, Debye-Ang**3):
 XXXX=            -22.0002 YYYY=            -23.7554 ZZZZ=            -22.8437 XXXY=              0.0002
 XXXZ=              0.0000 YYYX=              0.0001 YYYZ=              0.0000 ZZZX=             -0.0000
 ZZZY=              0.0000 XXYY=             -6.7533 XXZZ=             -7.7786 YYZZ=             -7.9790
 XXYZ=              0.0000 YYXZ=              0.0000 ZZXY=              0.0001
 N-N= 1.283613800782D+01 E-N=-9.746002125233D+02  KE= 3.980744605265D+02
 Symmetry A'   KE= 3.595323941022D+02
 Symmetry A"   KE= 3.854206642434D+01
 Unable to Open any file for archive entry.
 1\1\GINC-NODE7-IB\FOpt\RB3LYP\6-31G(d,p)\H2S1\CHESAGAR\04-Nov-2021\0\\
 # opt freq b3lyp/6-31G(d,p)\\Title Card Required\\0,1\S,2.3039239002,-
 1.1070682845,-2.4211592062\H,2.7605525834,-0.114351147,-3.2100857355\H
 ,1.0165435164,-0.8200845685,-2.6978340583\\Version=ES64L-G16RevC.01\St
 ate=1-A'\HF=-399.3916243\RMSD=3.721e-09\RMSF=1.101e-05\Dipole=-0.24572
 87,0.3784914,-0.3151689\Quadrupole=1.2059716,-0.3411107,-0.8648609,0.3
 58626,-0.1870423,-1.1861145\PG=CS [SG(H2S1)]\\@
 The archive entry for this job was punched.


 IT IS UNWORTHY OF EXCELLENT MEN TO LOSE HOURS LIKE SLAVES IN THE LABOR
 OF CALCULATION WHICH COULD BE SAFELY RELEGATED TO ANYONE ELSE
 IF A MACHINE WERE USED.
    -- G.W. VON LEIBNIZ
 Job cpu time:       0 days  0 hours  0 minutes 43.2 seconds.
 Elapsed time:       0 days  0 hours  0 minutes  3.8 seconds.
 File lengths (MBytes):  RWF=     17 Int=      0 D2E=      0 Chk=      2 Scr=      2
 Normal termination of Gaussian 16 at Thu Nov  4 13:45:05 2021.
 Link1:  Proceeding to internal job step number  2.
 ----------------------------------------------------------------------
 #N Geom=AllCheck Guess=TCheck SCRF=Check GenChk RB3LYP/6-31G(d,p) Freq
 ----------------------------------------------------------------------
 1/10=4,29=7,30=1,38=1,40=1/1,3;
 2/12=2,40=1/2;
 3/5=1,6=6,7=101,11=2,14=-4,25=1,30=1,70=2,71=2,74=-5,116=1,140=1/1,2,3;
 4/5=101/1;
 5/5=2,38=6,98=1/2;
 8/6=4,10=90,11=11/1;
 11/6=1,8=1,9=11,15=111,16=1/1,2,10;
 10/6=1/2;
 6/7=2,8=2,9=2,10=2,28=1/1;
 7/8=1,10=1,25=1/1,2,3,16;
 1/10=4,30=1/3;
 99//99;
 Structure from the checkpoint file:  "H2S.chk"
 -------------------
 Title Card Required
 -------------------
 Charge =  0 Multiplicity = 1
 Redundant internal coordinates found in file.  (old form).
 S,0,2.3039239002,-1.1070682845,-2.4211592062
 H,0,2.7605525834,-0.114351147,-3.2100857355
 H,0,1.0165435164,-0.8200845685,-2.6978340583
 Recover connectivity data from disk.

 GradGradGradGradGradGradGradGradGradGradGradGradGradGradGradGradGradGrad
 Berny optimization.
 Initialization pass.
                           ----------------------------
                           !    Initial Parameters    !
                           ! (Angstroms and Degrees)  !
 --------------------------                            --------------------------
 ! Name  Definition              Value          Derivative Info.                !
 --------------------------------------------------------------------------------
 ! R1    R(1,2)                  1.3477         calculate D2E/DX2 analytically  !
 ! R2    R(1,3)                  1.3477         calculate D2E/DX2 analytically  !
 ! A1    A(2,1,3)               92.6723         calculate D2E/DX2 analytically  !
 --------------------------------------------------------------------------------
 Trust Radius=3.00D-01 FncErr=1.00D-07 GrdErr=1.00D-07 EigMax=2.50D+02 EigMin=1.00D-04
 Number of steps in this run=      2 maximum allowed number of steps=      2.
 GradGradGradGradGradGradGradGradGradGradGradGradGradGradGradGradGradGrad

                          Input orientation:                          
 ---------------------------------------------------------------------
 Center     Atomic      Atomic             Coordinates (Angstroms)
 Number     Number       Type             X           Y           Z
 ---------------------------------------------------------------------
      1         16           0        2.303924   -1.107068   -2.421159
      2          1           0        2.760553   -0.114351   -3.210086
      3          1           0        1.016544   -0.820085   -2.697834
 ---------------------------------------------------------------------
                    Distance matrix (angstroms):
                    1          2          3
     1  S    0.000000
     2  H    1.347740   0.000000
     3  H    1.347686   1.949879   0.000000
 Stoichiometry    H2S
 Framework group  CS[SG(H2S)]
 Deg. of freedom     3
 Full point group                 CS      NOp   2
 Largest Abelian subgroup         CS      NOp   2
 Largest concise Abelian subgroup C1      NOp   1
                         Standard orientation:                         
 ---------------------------------------------------------------------
 Center     Atomic      Atomic             Coordinates (Angstroms)
 Number     Number       Type             X           Y           Z
 ---------------------------------------------------------------------
      1         16           0       -0.000000    0.103388   -0.000000
      2          1           0        0.974940   -0.827146    0.000000
      3          1           0       -0.974940   -0.827068    0.000000
 ---------------------------------------------------------------------
 Rotational constants (GHZ):         307.8396835         263.7828857         142.0567424
 Standard basis: 6-31G(d,p) (6D, 7F)
 There are    22 symmetry adapted cartesian basis functions of A'  symmetry.
 There are     7 symmetry adapted cartesian basis functions of A"  symmetry.
 There are    22 symmetry adapted basis functions of A'  symmetry.
 There are     7 symmetry adapted basis functions of A"  symmetry.
    29 basis functions,    66 primitive gaussians,    29 cartesian basis functions
     9 alpha electrons        9 beta electrons
       nuclear repulsion energy        12.8361380078 Hartrees.
 NAtoms=    3 NActive=    3 NUniq=    3 SFac= 1.00D+00 NAtFMM=   60 NAOKFM=F Big=F
 Integral buffers will be    131072 words long.
 Raffenetti 2 integral format.
 Two-electron integral symmetry is turned on.
 One-electron integrals computed using PRISM.
 NBasis=    29 RedAO= T EigKep=  1.46D-02  NBF=    22     7
 NBsUse=    29 1.00D-06 EigRej= -1.00D+00 NBFU=    22     7
 Initial guess from the checkpoint file:  "H2S.chk"
 B after Tr=    -0.000000   -0.000000   -0.000000
         Rot=    1.000000   -0.000000    0.000000   -0.000000 Ang=   0.00 deg.
 Initial guess orbital symmetries:
       Occupied  (A') (A') (A') (A') (A") (A') (A') (A') (A")
       Virtual   (A') (A') (A') (A') (A') (A") (A') (A') (A") (A")
                 (A') (A') (A') (A') (A") (A") (A') (A') (A') (A')
 Keep R1 ints in memory in symmetry-blocked form, NReq=13913574.
 Requested convergence on RMS density matrix=1.00D-08 within 128 cycles.
 Requested convergence on MAX density matrix=1.00D-06.
 Requested convergence on             energy=1.00D-06.
 No special actions if energy rises.
 SCF Done:  E(RB3LYP) =  -399.391624255     A.U. after    1 cycles
            NFock=  1  Conv=0.50D-09     -V/T= 2.0033
 DoSCS=F DFT=T ScalE2(SS,OS)=  1.000000  1.000000
 Range of M.O.s used for correlation:     1    29
 NBasis=    29 NAE=     9 NBE=     9 NFC=     0 NFV=     0
 NROrb=     29 NOA=     9 NOB=     9 NVA=    20 NVB=    20
 Symmetrizing basis deriv contribution to polar:
 IMax=3 JMax=2 DiffMx= 0.00D+00
 G2DrvN: will do     4 centers at a time, making    1 passes.
 Calling FoFCou, ICntrl=  3107 FMM=F I1Cent=   0 AccDes= 0.00D+00.
 End of G2Drv F.D. properties file   721 does not exist.
 End of G2Drv F.D. properties file   722 does not exist.
 End of G2Drv F.D. properties file   788 does not exist.
          IDoAtm=111
          Differentiating once with respect to electric field.
                with respect to dipole field.
          Differentiating once with respect to nuclear coordinates.
 Keep R1 ints in memory in symmetry-blocked form, NReq=13860276.
          There are    12 degrees of freedom in the 1st order CPHF.  IDoFFX=6 NUNeed=     3.
      9 vectors produced by pass  0 Test12= 1.50D-15 8.33D-09 XBig12= 1.38D+01 2.93D+00.
 AX will form     9 AO Fock derivatives at one time.
      9 vectors produced by pass  1 Test12= 1.50D-15 8.33D-09 XBig12= 9.80D-01 5.87D-01.
      9 vectors produced by pass  2 Test12= 1.50D-15 8.33D-09 XBig12= 5.21D-03 3.95D-02.
      9 vectors produced by pass  3 Test12= 1.50D-15 8.33D-09 XBig12= 1.02D-05 1.31D-03.
      8 vectors produced by pass  4 Test12= 1.50D-15 8.33D-09 XBig12= 3.30D-08 6.55D-05.
      4 vectors produced by pass  5 Test12= 1.50D-15 8.33D-09 XBig12= 1.66D-11 1.73D-06.
      1 vectors produced by pass  6 Test12= 1.50D-15 8.33D-09 XBig12= 3.86D-15 2.46D-08.
 InvSVY:  IOpt=1 It=  1 EMax= 4.44D-16
 Solved reduced A of dimension    49 with     9 vectors.
 Isotropic polarizability for W=    0.000000       14.85 Bohr**3.
 End of Minotr F.D. properties file   721 does not exist.
 End of Minotr F.D. properties file   722 does not exist.
 End of Minotr F.D. properties file   788 does not exist.

 **********************************************************************

            Population analysis using the SCF Density.

 **********************************************************************

 Orbital symmetries:
       Occupied  (A') (A') (A') (A') (A") (A') (A') (A') (A")
       Virtual   (A') (A') (A') (A') (A') (A") (A') (A') (A") (A")
                 (A') (A') (A') (A') (A") (A") (A') (A') (A') (A')
 The electronic state is 1-A'.
 Alpha  occ. eigenvalues --  -88.88746  -7.95118  -5.91591  -5.91271  -5.90555
 Alpha  occ. eigenvalues --   -0.74646  -0.44954  -0.36726  -0.26180
 Alpha virt. eigenvalues --    0.02117   0.05769   0.31262   0.32709   0.34524
 Alpha virt. eigenvalues --    0.36509   0.67450   0.69408   0.73479   0.74550
 Alpha virt. eigenvalues --    0.75469   1.01204   1.17467   1.98336   2.03304
 Alpha virt. eigenvalues --    2.11397   2.16721   2.67555   2.79880   4.00169
          Condensed to atoms (all electrons):
               1          2          3
     1  S   15.597710   0.283090   0.283089
     2  H    0.283090   0.650796  -0.015830
     3  H    0.283089  -0.015830   0.650797
 Mulliken charges:
               1
     1  S   -0.163889
     2  H    0.081945
     3  H    0.081944
 Sum of Mulliken charges =  -0.00000
 Mulliken charges with hydrogens summed into heavy atoms:
               1
     1  S   -0.000000
 APT charges:
               1
     1  S   -0.070909
     2  H    0.035453
     3  H    0.035456
 Sum of APT charges =   0.00000
 APT charges with hydrogens summed into heavy atoms:
               1
     1  S    0.000000
 Electronic spatial extent (au):  <R**2>=             43.6327
 Charge=             -0.0000 electrons
 Dipole moment (field-independent basis, Debye):
    X=             -0.0000    Y=             -1.3990    Z=              0.0000  Tot=              1.3990
 Quadrupole moment (field-independent basis, Debye-Ang):
   XX=            -12.1633   YY=            -13.4980   ZZ=            -16.5021
   XY=             -0.0001   XZ=             -0.0000   YZ=              0.0000
 Traceless Quadrupole moment (field-independent basis, Debye-Ang):
   XX=              1.8912   YY=              0.5565   ZZ=             -2.4476
   XY=             -0.0001   XZ=             -0.0000   YZ=              0.0000
 Octapole moment (field-independent basis, Debye-Ang**2):
  XXX=             -0.0002  YYY=             -1.6009  ZZZ=             -0.0000  XYY=              0.0000
  XXY=             -1.0484  XXZ=             -0.0000  XZZ=             -0.0001  YZZ=             -0.5832
  YYZ=             -0.0000  XYZ=             -0.0000
 Hexadecapole moment (field-independent basis, Debye-Ang**3):
 XXXX=            -22.0002 YYYY=            -23.7554 ZZZZ=            -22.8437 XXXY=              0.0002
 XXXZ=             -0.0000 YYYX=              0.0001 YYYZ=              0.0000 ZZZX=             -0.0000
 ZZZY=              0.0000 XXYY=             -6.7533 XXZZ=             -7.7786 YYZZ=             -7.9790
 XXYZ=              0.0000 YYXZ=             -0.0000 ZZXY=              0.0001
 N-N= 1.283613800782D+01 E-N=-9.746002125479D+02  KE= 3.980744605325D+02
 Symmetry A'   KE= 3.595323941002D+02
 Symmetry A"   KE= 3.854206643234D+01
  Exact polarizability:      17.592      -0.001      15.747      -0.000      -0.000      11.215
 Approx polarizability:      25.631      -0.001      21.794       0.000      -0.000      14.037
 Calling FoFJK, ICntrl=    100127 FMM=F ISym2X=1 I1Cent= 0 IOpClX= 0 NMat=1 NMatS=1 NMatT=0.
 Full mass-weighted force constant matrix:
 Low frequencies ---  -54.2434  -47.7084  -37.2374   -0.0020    0.0007    0.0051
 Low frequencies --- 1223.9293 2689.3971 2709.1462
 Diagonal vibrational polarizability:
        0.0316842       0.1132846       0.0000000
 Harmonic frequencies (cm**-1), IR intensities (KM/Mole), Raman scattering
 activities (A**4/AMU), depolarization ratios for plane and unpolarized
 incident light, reduced masses (AMU), force constants (mDyne/A),
 and normal coordinates:
                      1                      2                      3
                     A'                     A'                     A'
 Frequencies --   1223.9293              2689.3971              2709.1462
 Red. masses --      1.0396                 1.0357                 1.0400
 Frc consts  --      0.9175                 4.4136                 4.4972
 IR Inten    --      4.9095                 6.7429                 8.6410
  Atom  AN      X      Y      Z        X      Y      Z        X      Y      Z
     1  16     0.00  -0.03   0.00    -0.00   0.03  -0.00    -0.03  -0.00  -0.00
     2   1     0.49   0.51   0.00     0.53  -0.48   0.00     0.51  -0.48   0.00
     3   1    -0.49   0.51  -0.00    -0.52  -0.47  -0.00     0.52   0.49   0.00

 -------------------
 - Thermochemistry -
 -------------------
 Temperature   298.150 Kelvin.  Pressure   1.00000 Atm.
 Atom     1 has atomic number 16 and mass  31.97207
 Atom     2 has atomic number  1 and mass   1.00783
 Atom     3 has atomic number  1 and mass   1.00783
 Molecular mass:    33.98772 amu.
 Principal axes and moments of inertia in atomic units:
                           1         2         3
     Eigenvalues --     5.86260   6.84177  12.70437
           X            1.00000   0.00028   0.00000
           Y           -0.00028   1.00000   0.00000
           Z            0.00000  -0.00000   1.00000
 This molecule is an asymmetric top.
 Rotational symmetry number  1.
 Rotational temperatures (Kelvin)     14.77398    12.65958     6.81765
 Rotational constants (GHZ):         307.83968   263.78289   142.05674
 Zero-point vibrational energy      39611.2 (Joules/Mol)
                                    9.46730 (Kcal/Mol)
 Vibrational temperatures:   1760.96  3869.44  3897.86
          (Kelvin)
 
 Zero-point correction=                           0.015087 (Hartree/Particle)
 Thermal correction to Energy=                    0.017935
 Thermal correction to Enthalpy=                  0.018879
 Thermal correction to Gibbs Free Energy=        -0.005132
 Sum of electronic and zero-point Energies=           -399.376537
 Sum of electronic and thermal Energies=              -399.373689
 Sum of electronic and thermal Enthalpies=            -399.372745
 Sum of electronic and thermal Free Energies=         -399.396756
 
                     E (Thermal)             CV                S
                      KCal/Mol        Cal/Mol-Kelvin    Cal/Mol-Kelvin
 Total                   11.254              6.153             50.535
 Electronic               0.000              0.000              0.000
 Translational            0.889              2.981             36.501
 Rotational               0.889              2.981             13.997
 Vibrational              9.477              0.191              0.038
                       Q            Log10(Q)             Ln(Q)
 Total Bot       0.229348D+03          2.360495          5.435240
 Total V=0       0.199560D+10          9.300074         21.414212
 Vib (Bot)       0.115241D-06         -6.938394        -15.976242
 Vib (V=0)       0.100273D+01          0.001186          0.002730
 Electronic      0.100000D+01          0.000000          0.000000
 Translational   0.778820D+07          6.891437         15.868120
 Rotational      0.255536D+03          2.407451          5.543362
 ***** Axes restored to original set *****
 -------------------------------------------------------------------
 Center     Atomic                   Forces (Hartrees/Bohr)
 Number     Number              X              Y              Z
 -------------------------------------------------------------------
      1       16           0.000023563   -0.000001561    0.000002072
      2        1          -0.000012705   -0.000007863    0.000005938
      3        1          -0.000010858    0.000009424   -0.000008010
 -------------------------------------------------------------------
 Cartesian Forces:  Max     0.000023563 RMS     0.000011012
 FormGI is forming the generalized inverse of G from B-inverse, IUseBI=4.

 GradGradGradGradGradGradGradGradGradGradGradGradGradGradGradGradGradGrad
 Berny optimization.
 Internal  Forces:  Max     0.000021946 RMS     0.000016956
 Search for a local minimum.
 Step number   1 out of a maximum of    2
 All quantities printed in internal units (Hartrees-Bohrs-Radians)
 Second derivative matrix not updated -- analytic derivatives used.
 The second derivative matrix:
                          R1        R2        A1
           R1           0.26947
           R2          -0.00146   0.26955
           A1           0.00853   0.00853   0.17992
 ITU=  0
     Eigenvalues ---    0.17830   0.26967   0.27097
 Angle between quadratic step and forces=  11.36 degrees.
 Linear search not attempted -- first point.
 Iteration  1 RMS(Cart)=  0.00010525 RMS(Int)=  0.00000000
 Iteration  2 RMS(Cart)=  0.00000000 RMS(Int)=  0.00000000
 ClnCor:  largest displacement from symmetrization is 2.26D-15 for atom     3.
 Variable       Old X    -DE/DX   Delta X   Delta X   Delta X     New X
                                 (Linear)    (Quad)   (Total)
    R1        2.54686  -0.00001   0.00000  -0.00005  -0.00005   2.54681
    R2        2.54676   0.00001   0.00000   0.00006   0.00006   2.54681
    A1        1.61744  -0.00002   0.00000  -0.00012  -0.00012   1.61732
         Item               Value     Threshold  Converged?
 Maximum Force            0.000022     0.000450     YES
 RMS     Force            0.000017     0.000300     YES
 Maximum Displacement     0.000119     0.001800     YES
 RMS     Displacement     0.000105     0.001200     YES
 Predicted change in Energy=-2.047092D-09
 Optimization completed.
    -- Stationary point found.
                           ----------------------------
                           !   Optimized Parameters   !
                           ! (Angstroms and Degrees)  !
 --------------------------                            --------------------------
 ! Name  Definition              Value          Derivative Info.                !
 --------------------------------------------------------------------------------
 ! R1    R(1,2)                  1.3477         -DE/DX =    0.0                 !
 ! R2    R(1,3)                  1.3477         -DE/DX =    0.0                 !
 ! A1    A(2,1,3)               92.6723         -DE/DX =    0.0                 !
 --------------------------------------------------------------------------------
 GradGradGradGradGradGradGradGradGradGradGradGradGradGradGradGradGradGrad


 ----------------------------------------------------------------------

 Electric dipole moment (input orientation):
 (Debye = 10**-18 statcoulomb cm , SI units = C m)
                  (au)            (Debye)         (10**-30 SI)
   Tot        0.550427D+00      0.139905D+01      0.466671D+01
   x         -0.245729D+00     -0.624580D+00     -0.208337D+01
   y          0.378491D+00      0.962029D+00      0.320898D+01
   z         -0.315169D+00     -0.801079D+00     -0.267211D+01

 Dipole polarizability, Alpha (input orientation).
 (esu units = cm**3 , SI units = C**2 m**2 J**-1)
 Alpha(0;0):
               (au)            (10**-24 esu)      (10**-40 SI)
   iso        0.148512D+02      0.220072D+01      0.244863D+01
   aniso      0.568326D+01      0.842172D+00      0.937043D+00
   xx         0.172189D+02      0.255158D+01      0.283902D+01
   yx         0.673262D+00      0.997671D-01      0.111006D+00
   yy         0.141935D+02      0.210325D+01      0.234019D+01
   zx        -0.340063D+00     -0.503921D-01     -0.560688D-01
   zy        -0.239081D+01     -0.354282D+00     -0.394192D+00
   zz         0.131411D+02      0.194731D+01      0.216668D+01

 ----------------------------------------------------------------------

 Dipole orientation:
    16          5.43619918          3.75927822         -0.76245226
     1          7.22151172          3.30408492          0.99594132
     1          3.65100168          4.21444218          0.99591822

 Electric dipole moment (dipole orientation):
 (Debye = 10**-18 statcoulomb cm , SI units = C m)
                  (au)            (Debye)         (10**-30 SI)
   Tot        0.550427D+00      0.139905D+01      0.466671D+01
   x          0.000000D+00      0.000000D+00      0.000000D+00
   y          0.000000D+00      0.000000D+00      0.000000D+00
   z          0.550427D+00      0.139905D+01      0.466671D+01

 Dipole polarizability, Alpha (dipole orientation).
 (esu units = cm**3 , SI units = C**2 m**2 J**-1)
 Alpha(0;0):
               (au)            (10**-24 esu)      (10**-40 SI)
   iso        0.148512D+02      0.220072D+01      0.244863D+01
   aniso      0.568326D+01      0.842172D+00      0.937043D+00
   xx         0.172023D+02      0.254912D+01      0.283628D+01
   yx        -0.152654D+01     -0.226209D+00     -0.251692D+00
   yy         0.116043D+02      0.171958D+01      0.191329D+01
   zx         0.548817D-03      0.813263D-04      0.904877D-04
   zy        -0.139929D-03     -0.207354D-04     -0.230713D-04
   zz         0.157469D+02      0.233345D+01      0.259631D+01

 ----------------------------------------------------------------------
 Unable to Open any file for archive entry.
 1\1\GINC-NODE7-IB\Freq\RB3LYP\6-31G(d,p)\H2S1\CHESAGAR\04-Nov-2021\0\\
 #N Geom=AllCheck Guess=TCheck SCRF=Check GenChk RB3LYP/6-31G(d,p) Freq
 \\Title Card Required\\0,1\S,2.3039239002,-1.1070682845,-2.4211592062\
 H,2.7605525834,-0.114351147,-3.2100857355\H,1.0165435164,-0.8200845685
 ,-2.6978340583\\Version=ES64L-G16RevC.01\State=1-A'\HF=-399.3916243\RM
 SD=5.021e-10\RMSF=1.101e-05\ZeroPoint=0.0150871\Thermal=0.0179349\ETot
 =-399.3736893\HTot=-399.3727451\GTot=-399.3967561\Dipole=-0.2457287,0.
 3784914,-0.3151689\DipoleDeriv=-0.0098417,-0.0566488,0.0562951,-0.0566
 398,-0.0597282,-0.2072542,0.0562878,-0.2072545,-0.1431573,0.058587,0.0
 433867,-0.0385171,-0.0476886,-0.0035871,0.1281312,0.0352963,0.13125,0.
 0513587,-0.0487453,0.0132621,-0.0177779,0.1043284,0.0633153,0.0791229,
 -0.0915841,0.0760045,0.0917985\Polar=17.2189215,0.6732616,14.1934594,-
 0.340063,-2.3908132,13.1411143\Quadrupole=1.2059717,-0.3411108,-0.8648
 609,0.358626,-0.1870423,-1.1861145\PG=CS [SG(H2S1)]\NImag=0\\0.2867136
 0,-0.00039126,0.17900436,0.01014233,-0.14525945,0.11786636,-0.04701834
 ,-0.04303871,0.03326793,0.05758187,-0.06595872,-0.14952955,0.11901012,
 0.06283610,0.14664844,0.05184381,0.11979499,-0.09521541,-0.04895158,-0
 .11677542,0.09287534,-0.23969526,0.04342997,-0.04341027,-0.01056353,0.
 00312262,-0.00289223,0.25025879,0.06634998,-0.02947482,0.02624933,-0.0
 1979739,0.00288110,-0.00301957,-0.04655259,0.02659372,-0.06198614,0.02
 546447,-0.02265095,0.01568365,-0.00223470,0.00234007,0.04630249,-0.023
 22976,0.02031088\\-0.00002356,0.00000156,-0.00000207,0.00001270,0.0000
 0786,-0.00000594,0.00001086,-0.00000942,0.00000801\\\@
 The archive entry for this job was punched.


 I think that all right-thinking people in this
 country are sick and tired of being told that
 ordinary, decent people are fed up in this country
 with being sick and tired.  I'm certainly not!
 But I'm sick and tired of being told that I am!
                               -- Monty Python
 Job cpu time:       0 days  0 hours  0 minutes 27.7 seconds.
 Elapsed time:       0 days  0 hours  0 minutes  2.3 seconds.
 File lengths (MBytes):  RWF=     17 Int=      0 D2E=      0 Chk=      2 Scr=      2
 Normal termination of Gaussian 16 at Thu Nov  4 13:45:09 2021.
