 Entering Gaussian System, Link 0=/apps/GAU16/avx2/g16/g16
 Initial command:
 /apps/GAU16/avx2//g16/l1.exe "/localscratch/chegho/Gau-226220.inp" -scrdir="/localscratch/chegho/"
 Entering Link 1 = /apps/GAU16/avx2//g16/l1.exe PID=    226221.
  
 Copyright (c) 1988-2019, Gaussian, Inc.  All Rights Reserved.
  
 This is part of the Gaussian(R) 16 program.  It is based on
 the Gaussian(R) 09 system (copyright 2009, Gaussian, Inc.),
 the Gaussian(R) 03 system (copyright 2003, Gaussian, Inc.),
 the Gaussian(R) 98 system (copyright 1998, Gaussian, Inc.),
 the Gaussian(R) 94 system (copyright 1995, Gaussian, Inc.),
 the Gaussian 92(TM) system (copyright 1992, Gaussian, Inc.),
 the Gaussian 90(TM) system (copyright 1990, Gaussian, Inc.),
 the Gaussian 88(TM) system (copyright 1988, Gaussian, Inc.),
 the Gaussian 86(TM) system (copyright 1986, Carnegie Mellon
 University), and the Gaussian 82(TM) system (copyright 1983,
 Carnegie Mellon University). Gaussian is a federally registered
 trademark of Gaussian, Inc.
  
 This software contains proprietary and confidential information,
 including trade secrets, belonging to Gaussian, Inc.
  
 This software is provided under written license and may be
 used, copied, transmitted, or stored only in accord with that
 written license.
  
 The following legend is applicable only to US Government
 contracts under FAR:
  
                    RESTRICTED RIGHTS LEGEND
  
 Use, reproduction and disclosure by the US Government is
 subject to restrictions as set forth in subparagraphs (a)
 and (c) of the Commercial Computer Software - Restricted
 Rights clause in FAR 52.227-19.
  
 Gaussian, Inc.
 340 Quinnipiac St., Bldg. 40, Wallingford CT 06492
  
  
 ---------------------------------------------------------------
 Warning -- This program may not be used in any manner that
 competes with the business of Gaussian, Inc. or will provide
 assistance to any competitor of Gaussian, Inc.  The licensee
 of this program is prohibited from giving any competitor of
 Gaussian, Inc. access to this program.  By using this program,
 the user acknowledges that Gaussian, Inc. is engaged in the
 business of creating and licensing software in the field of
 computational chemistry and represents and warrants to the
 licensee that it is not a competitor of Gaussian, Inc. and that
 it will not use this program in any manner prohibited above.
 ---------------------------------------------------------------
  

 Cite this work as:
 Gaussian 16, Revision C.01,
 M. J. Frisch, G. W. Trucks, H. B. Schlegel, G. E. Scuseria, 
 M. A. Robb, J. R. Cheeseman, G. Scalmani, V. Barone, 
 G. A. Petersson, H. Nakatsuji, X. Li, M. Caricato, A. V. Marenich, 
 J. Bloino, B. G. Janesko, R. Gomperts, B. Mennucci, H. P. Hratchian, 
 J. V. Ortiz, A. F. Izmaylov, J. L. Sonnenberg, D. Williams-Young, 
 F. Ding, F. Lipparini, F. Egidi, J. Goings, B. Peng, A. Petrone, 
 T. Henderson, D. Ranasinghe, V. G. Zakrzewski, J. Gao, N. Rega, 
 G. Zheng, W. Liang, M. Hada, M. Ehara, K. Toyota, R. Fukuda, 
 J. Hasegawa, M. Ishida, T. Nakajima, Y. Honda, O. Kitao, H. Nakai, 
 T. Vreven, K. Throssell, J. A. Montgomery, Jr., J. E. Peralta, 
 F. Ogliaro, M. J. Bearpark, J. J. Heyd, E. N. Brothers, K. N. Kudin, 
 V. N. Staroverov, T. A. Keith, R. Kobayashi, J. Normand, 
 K. Raghavachari, A. P. Rendell, J. C. Burant, S. S. Iyengar, 
 J. Tomasi, M. Cossi, J. M. Millam, M. Klene, C. Adamo, R. Cammi, 
 J. W. Ochterski, R. L. Martin, K. Morokuma, O. Farkas, 
 J. B. Foresman, and D. J. Fox, Gaussian, Inc., Wallingford CT, 2019.
 
 ******************************************
 Gaussian 16:  ES64L-G16RevC.01  3-Jul-2019
                14-Dec-2022 
 ******************************************
 %nprocshared=48
 Will use up to   48 processors via shared memory.
 %mem=100GB
 ---------------------------------------
 # opt freq b3lyp/gen nosymm pseudo=read
 ---------------------------------------
 1/18=20,19=15,26=3,38=1/1,3;
 2/9=110,12=2,15=1,17=6,18=5,40=1/2;
 3/5=7,11=2,16=1,17=8,25=1,30=1,71=1,74=-5/1,2,3;
 4//1;
 5/5=2,38=5/2;
 6/7=2,8=2,9=2,10=2,28=1/1;
 7/30=1/1,2,3,16;
 1/18=20,19=15,26=3/3(2);
 2/9=110,15=1/2;
 99//99;
 2/9=110,15=1/2;
 3/5=7,6=1,11=2,16=1,17=8,25=1,30=1,71=1,74=-5,82=7/1,2,3;
 4/5=5,16=3,69=1/1;
 5/5=2,38=5/2;
 7/30=1/1,2,3,16;
 1/18=20,19=15,26=3/3(-5);
 2/9=110,15=1/2;
 6/7=2,8=2,9=2,10=2,19=2,28=1/1;
 99/9=1/99;
 -------------------
 Title Card Required
 -------------------
 Symbolic Z-matrix:
 Charge =  0 Multiplicity = 1
 42                    0.34545   1.82725   12.28724 
 16                    1.313     3.96345   12.0663 
 16                   -1.6649    2.39872   13.29363 
 16                   -0.5264    0.99083   10.23419 
 16                    2.22588   0.217     11.73236 
 42                   -2.19016   2.56693   10.94295 
 16                   -3.16909   1.81741   8.75272 
 16                   -1.39842   4.70273   10.597 
 42                    0.52136   3.188     9.8927 
 16                   -0.43322   2.91219   7.50403 
 16                    2.39659   1.88409   8.96289 
 42                    2.96588   2.57193   11.17382 
 42                   -2.16073   4.14006   8.48346 
 16                    4.36748   2.64658   13.26031 
 16                    4.52043   4.29785   10.48323 
 16                   -4.45143   5.12118   8.66211 
 16                   -1.65201   6.30892   7.59914 
 42                   -4.83227   3.11411   9.61406 
 16                   -6.75512   2.32758   9.19579 
 16                   -4.41923   3.21665   11.81906 
 42                    2.98113   0.96502   13.77659 
 16                    3.96877  -0.5347    14.90234 
 16                    1.15524   1.72546   14.76677 
 42                    0.17039   5.13785   6.79159 
 16                    0.29076   5.29227   4.66846 
 16                    1.32678   5.49748   9.21502 
 42                    3.06505   4.16014   8.73582 
 16                    2.42747   3.70114   6.33848 
 16                    4.47955   5.96765   7.62034 
 42                    2.91967   5.94329   5.99384 
 16                    3.81606   6.4814    4.15264 
 16                    1.38788   7.41392   6.7159 
 

 GradGradGradGradGradGradGradGradGradGradGradGradGradGradGradGradGradGrad
 Berny optimization.
 Initialization pass.
                           ----------------------------
                           !    Initial Parameters    !
                           ! (Angstroms and Degrees)  !
 --------------------------                            --------------------------
 ! Name  Definition              Value          Derivative Info.                !
 --------------------------------------------------------------------------------
 ! R1    R(1,2)                  2.3555         estimate D2E/DX2                !
 ! R2    R(1,3)                  2.3197         estimate D2E/DX2                !
 ! R3    R(1,4)                  2.3822         estimate D2E/DX2                !
 ! R4    R(1,5)                  2.5371         estimate D2E/DX2                !
 ! R5    R(1,6)                  2.9637         estimate D2E/DX2                !
 ! R6    R(1,9)                  2.7598         estimate D2E/DX2                !
 ! R7    R(1,12)                 2.9429         estimate D2E/DX2                !
 ! R8    R(1,23)                 2.6104         estimate D2E/DX2                !
 ! R9    R(2,9)                  2.4398         estimate D2E/DX2                !
 ! R10   R(2,12)                 2.3377         estimate D2E/DX2                !
 ! R11   R(3,6)                  2.4145         estimate D2E/DX2                !
 ! R12   R(4,6)                  2.3989         estimate D2E/DX2                !
 ! R13   R(4,9)                  2.458          estimate D2E/DX2                !
 ! R14   R(5,12)                 2.5309         estimate D2E/DX2                !
 ! R15   R(5,21)                 2.3041         estimate D2E/DX2                !
 ! R16   R(6,7)                  2.5134         estimate D2E/DX2                !
 ! R17   R(6,8)                  2.3039         estimate D2E/DX2                !
 ! R18   R(6,9)                  2.9734         estimate D2E/DX2                !
 ! R19   R(6,13)                 2.9197         estimate D2E/DX2                !
 ! R20   R(6,18)                 3.0077         estimate D2E/DX2                !
 ! R21   R(6,20)                 2.4816         estimate D2E/DX2                !
 ! R22   R(7,13)                 2.5464         estimate D2E/DX2                !
 ! R23   R(7,18)                 2.2781         estimate D2E/DX2                !
 ! R24   R(8,9)                  2.5448         estimate D2E/DX2                !
 ! R25   R(8,13)                 2.3162         estimate D2E/DX2                !
 ! R26   R(9,10)                 2.5871         estimate D2E/DX2                !
 ! R27   R(9,11)                 2.466          estimate D2E/DX2                !
 ! R28   R(9,12)                 2.8278         estimate D2E/DX2                !
 ! R29   R(9,26)                 2.538          estimate D2E/DX2                !
 ! R30   R(9,27)                 2.9587         estimate D2E/DX2                !
 ! R31   R(10,13)                2.3348         estimate D2E/DX2                !
 ! R32   R(10,24)                2.4136         estimate D2E/DX2                !
 ! R33   R(11,12)                2.3844         estimate D2E/DX2                !
 ! R34   R(11,27)                2.383          estimate D2E/DX2                !
 ! R35   R(12,14)                2.5147         estimate D2E/DX2                !
 ! R36   R(12,15)                2.4233         estimate D2E/DX2                !
 ! R37   R(12,21)                3.0589         estimate D2E/DX2                !
 ! R38   R(12,27)                2.9114         estimate D2E/DX2                !
 ! R39   R(13,16)                2.4984         estimate D2E/DX2                !
 ! R40   R(13,17)                2.3968         estimate D2E/DX2                !
 ! R41   R(13,18)                3.077          estimate D2E/DX2                !
 ! R42   R(13,24)                3.0483         estimate D2E/DX2                !
 ! R43   R(14,21)                2.2397         estimate D2E/DX2                !
 ! R44   R(15,27)                2.2783         estimate D2E/DX2                !
 ! R45   R(16,18)                2.2538         estimate D2E/DX2                !
 ! R46   R(17,24)                2.3119         estimate D2E/DX2                !
 ! R47   R(18,19)                2.1192         estimate D2E/DX2                !
 ! R48   R(18,20)                2.2457         estimate D2E/DX2                !
 ! R49   R(21,22)                2.1194         estimate D2E/DX2                !
 ! R50   R(21,23)                2.2119         estimate D2E/DX2                !
 ! R51   R(24,25)                2.1321         estimate D2E/DX2                !
 ! R52   R(24,26)                2.7092         estimate D2E/DX2                !
 ! R53   R(24,28)                2.7136         estimate D2E/DX2                !
 ! R54   R(24,30)                2.9738         estimate D2E/DX2                !
 ! R55   R(24,32)                2.5823         estimate D2E/DX2                !
 ! R56   R(26,27)                2.2449         estimate D2E/DX2                !
 ! R57   R(27,28)                2.5228         estimate D2E/DX2                !
 ! R58   R(27,29)                2.5519         estimate D2E/DX2                !
 ! R59   R(28,30)                2.3213         estimate D2E/DX2                !
 ! R60   R(29,30)                2.2537         estimate D2E/DX2                !
 ! R61   R(30,31)                2.1173         estimate D2E/DX2                !
 ! R62   R(30,32)                2.2429         estimate D2E/DX2                !
 ! A1    A(2,1,3)               99.9774         estimate D2E/DX2                !
 ! A2    A(2,1,4)              112.8256         estimate D2E/DX2                !
 ! A3    A(2,1,5)              104.515          estimate D2E/DX2                !
 ! A4    A(2,1,6)               94.7348         estimate D2E/DX2                !
 ! A5    A(2,1,23)              89.83           estimate D2E/DX2                !
 ! A6    A(3,1,4)               98.2346         estimate D2E/DX2                !
 ! A7    A(3,1,5)              153.3275         estimate D2E/DX2                !
 ! A8    A(3,1,9)              108.0715         estimate D2E/DX2                !
 ! A9    A(3,1,12)             150.8654         estimate D2E/DX2                !
 ! A10   A(3,1,23)              82.3199         estimate D2E/DX2                !
 ! A11   A(4,1,5)               81.9476         estimate D2E/DX2                !
 ! A12   A(4,1,12)              95.0866         estimate D2E/DX2                !
 ! A13   A(4,1,23)             156.7044         estimate D2E/DX2                !
 ! A14   A(5,1,6)              133.8932         estimate D2E/DX2                !
 ! A15   A(5,1,9)               94.3548         estimate D2E/DX2                !
 ! A16   A(5,1,23)              87.31           estimate D2E/DX2                !
 ! A17   A(6,1,12)             121.8053         estimate D2E/DX2                !
 ! A18   A(6,1,23)             134.9091         estimate D2E/DX2                !
 ! A19   A(9,1,23)             145.4476         estimate D2E/DX2                !
 ! A20   A(12,1,23)             95.337          estimate D2E/DX2                !
 ! A21   A(1,5,21)              80.9587         estimate D2E/DX2                !
 ! A22   A(1,6,7)              130.8484         estimate D2E/DX2                !
 ! A23   A(1,6,8)               90.3131         estimate D2E/DX2                !
 ! A24   A(1,6,13)             120.5264         estimate D2E/DX2                !
 ! A25   A(1,6,20)             132.3528         estimate D2E/DX2                !
 ! A26   A(3,6,4)               95.221          estimate D2E/DX2                !
 ! A27   A(3,6,7)              155.8305         estimate D2E/DX2                !
 ! A28   A(3,6,8)               97.8168         estimate D2E/DX2                !
 ! A29   A(3,6,9)               99.2095         estimate D2E/DX2                !
 ! A30   A(3,6,13)             148.8089         estimate D2E/DX2                !
 ! A31   A(3,6,18)             129.3404         estimate D2E/DX2                !
 ! A32   A(3,6,20)              82.5268         estimate D2E/DX2                !
 ! A33   A(4,6,7)               79.4399         estimate D2E/DX2                !
 ! A34   A(4,6,8)              109.0483         estimate D2E/DX2                !
 ! A35   A(4,6,13)              95.6311         estimate D2E/DX2                !
 ! A36   A(4,6,18)             126.7449         estimate D2E/DX2                !
 ! A37   A(4,6,20)             154.0667         estimate D2E/DX2                !
 ! A38   A(7,6,8)              106.2267         estimate D2E/DX2                !
 ! A39   A(7,6,9)               96.2962         estimate D2E/DX2                !
 ! A40   A(7,6,20)              92.056          estimate D2E/DX2                !
 ! A41   A(8,6,18)              93.835          estimate D2E/DX2                !
 ! A42   A(8,6,20)              96.8331         estimate D2E/DX2                !
 ! A43   A(9,6,13)              65.2111         estimate D2E/DX2                !
 ! A44   A(9,6,18)             127.3747         estimate D2E/DX2                !
 ! A45   A(9,6,20)             152.7643         estimate D2E/DX2                !
 ! A46   A(13,6,20)             99.5194         estimate D2E/DX2                !
 ! A47   A(9,8,13)              81.4394         estimate D2E/DX2                !
 ! A48   A(1,9,8)               90.3016         estimate D2E/DX2                !
 ! A49   A(1,9,10)             136.4708         estimate D2E/DX2                !
 ! A50   A(1,9,11)              96.5986         estimate D2E/DX2                !
 ! A51   A(1,9,26)             134.472          estimate D2E/DX2                !
 ! A52   A(1,9,27)             123.7847         estimate D2E/DX2                !
 ! A53   A(2,9,4)              107.376          estimate D2E/DX2                !
 ! A54   A(2,9,6)               92.7284         estimate D2E/DX2                !
 ! A55   A(2,9,8)               78.9906         estimate D2E/DX2                !
 ! A56   A(2,9,11)             104.906          estimate D2E/DX2                !
 ! A57   A(2,9,26)              81.1237         estimate D2E/DX2                !
 ! A58   A(2,9,27)              87.9922         estimate D2E/DX2                !
 ! A59   A(4,9,8)               99.9062         estimate D2E/DX2                !
 ! A60   A(4,9,10)              82.8594         estimate D2E/DX2                !
 ! A61   A(4,9,11)              84.4845         estimate D2E/DX2                !
 ! A62   A(4,9,12)              96.3615         estimate D2E/DX2                !
 ! A63   A(4,9,27)             135.6016         estimate D2E/DX2                !
 ! A64   A(6,9,10)              88.1304         estimate D2E/DX2                !
 ! A65   A(6,9,11)             135.7409         estimate D2E/DX2                !
 ! A66   A(6,9,12)             125.6472         estimate D2E/DX2                !
 ! A67   A(6,9,26)             125.0135         estimate D2E/DX2                !
 ! A68   A(8,9,10)              92.329          estimate D2E/DX2                !
 ! A69   A(8,9,12)             131.0285         estimate D2E/DX2                !
 ! A70   A(8,9,26)              76.8016         estimate D2E/DX2                !
 ! A71   A(8,9,27)             124.1406         estimate D2E/DX2                !
 ! A72   A(10,9,11)             82.8815         estimate D2E/DX2                !
 ! A73   A(10,9,12)            135.5643         estimate D2E/DX2                !
 ! A74   A(10,9,26)             88.1417         estimate D2E/DX2                !
 ! A75   A(10,9,27)             89.4974         estimate D2E/DX2                !
 ! A76   A(11,9,26)             97.9984         estimate D2E/DX2                !
 ! A77   A(12,9,26)             92.5725         estimate D2E/DX2                !
 ! A78   A(9,10,13)             80.19           estimate D2E/DX2                !
 ! A79   A(9,10,24)             94.7008         estimate D2E/DX2                !
 ! A80   A(1,12,11)             93.7399         estimate D2E/DX2                !
 ! A81   A(1,12,14)            100.9461         estimate D2E/DX2                !
 ! A82   A(1,12,15)            149.2315         estimate D2E/DX2                !
 ! A83   A(1,12,21)             63.2301         estimate D2E/DX2                !
 ! A84   A(1,12,27)            119.0248         estimate D2E/DX2                !
 ! A85   A(2,12,5)             105.2413         estimate D2E/DX2                !
 ! A86   A(2,12,11)            110.9102         estimate D2E/DX2                !
 ! A87   A(2,12,14)             93.4196         estimate D2E/DX2                !
 ! A88   A(2,12,15)             97.9568         estimate D2E/DX2                !
 ! A89   A(2,12,21)             89.5059         estimate D2E/DX2                !
 ! A90   A(2,12,27)             91.0925         estimate D2E/DX2                !
 ! A91   A(5,12,9)              92.8628         estimate D2E/DX2                !
 ! A92   A(5,12,11)             82.3226         estimate D2E/DX2                !
 ! A93   A(5,12,14)             90.4284         estimate D2E/DX2                !
 ! A94   A(5,12,15)            155.9473         estimate D2E/DX2                !
 ! A95   A(5,12,27)            134.6171         estimate D2E/DX2                !
 ! A96   A(9,12,14)            148.3493         estimate D2E/DX2                !
 ! A97   A(9,12,15)            105.681          estimate D2E/DX2                !
 ! A98   A(9,12,21)            120.2816         estimate D2E/DX2                !
 ! A99   A(11,12,14)           155.644          estimate D2E/DX2                !
 ! A100  A(11,12,15)            95.4153         estimate D2E/DX2                !
 ! A101  A(11,12,21)           129.6897         estimate D2E/DX2                !
 ! A102  A(14,12,15)            81.8221         estimate D2E/DX2                !
 ! A103  A(14,12,27)           131.2725         estimate D2E/DX2                !
 ! A104  A(15,12,21)           127.8379         estimate D2E/DX2                !
 ! A105  A(6,13,10)             94.4434         estimate D2E/DX2                !
 ! A106  A(6,13,16)             98.1698         estimate D2E/DX2                !
 ! A107  A(6,13,17)            143.177          estimate D2E/DX2                !
 ! A108  A(6,13,24)            130.6629         estimate D2E/DX2                !
 ! A109  A(7,13,8)             104.7988         estimate D2E/DX2                !
 ! A110  A(7,13,10)             81.8166         estimate D2E/DX2                !
 ! A111  A(7,13,16)             89.2869         estimate D2E/DX2                !
 ! A112  A(7,13,17)            161.5229         estimate D2E/DX2                !
 ! A113  A(7,13,24)            131.3065         estimate D2E/DX2                !
 ! A114  A(8,13,10)            105.4877         estimate D2E/DX2                !
 ! A115  A(8,13,16)             98.1124         estimate D2E/DX2                !
 ! A116  A(8,13,17)             92.6938         estimate D2E/DX2                !
 ! A117  A(8,13,18)             91.8029         estimate D2E/DX2                !
 ! A118  A(8,13,24)            100.0937         estimate D2E/DX2                !
 ! A119  A(10,13,16)           156.1943         estimate D2E/DX2                !
 ! A120  A(10,13,17)            99.4431         estimate D2E/DX2                !
 ! A121  A(10,13,18)           128.4029         estimate D2E/DX2                !
 ! A122  A(16,13,17)            82.2782         estimate D2E/DX2                !
 ! A123  A(16,13,24)           127.7569         estimate D2E/DX2                !
 ! A124  A(17,13,18)           128.43           estimate D2E/DX2                !
 ! A125  A(6,18,16)            101.5483         estimate D2E/DX2                !
 ! A126  A(6,18,19)            144.7614         estimate D2E/DX2                !
 ! A127  A(7,18,16)            102.934          estimate D2E/DX2                !
 ! A128  A(7,18,19)            112.1208         estimate D2E/DX2                !
 ! A129  A(7,18,20)            105.246          estimate D2E/DX2                !
 ! A130  A(13,18,19)           147.0366         estimate D2E/DX2                !
 ! A131  A(13,18,20)           100.7115         estimate D2E/DX2                !
 ! A132  A(16,18,19)           113.6078         estimate D2E/DX2                !
 ! A133  A(16,18,20)           110.0587         estimate D2E/DX2                !
 ! A134  A(19,18,20)           112.187          estimate D2E/DX2                !
 ! A135  A(5,21,14)            104.0121         estimate D2E/DX2                !
 ! A136  A(5,21,22)            113.2207         estimate D2E/DX2                !
 ! A137  A(5,21,23)            103.7802         estimate D2E/DX2                !
 ! A138  A(12,21,22)           145.6909         estimate D2E/DX2                !
 ! A139  A(12,21,23)           101.3139         estimate D2E/DX2                !
 ! A140  A(14,21,22)           111.4244         estimate D2E/DX2                !
 ! A141  A(14,21,23)           110.8572         estimate D2E/DX2                !
 ! A142  A(22,21,23)           112.9647         estimate D2E/DX2                !
 ! A143  A(1,23,21)             81.0411         estimate D2E/DX2                !
 ! A144  A(10,24,17)            99.6053         estimate D2E/DX2                !
 ! A145  A(10,24,25)           112.0142         estimate D2E/DX2                !
 ! A146  A(10,24,26)            88.0008         estimate D2E/DX2                !
 ! A147  A(10,24,28)            76.649          estimate D2E/DX2                !
 ! A148  A(10,24,30)           124.0654         estimate D2E/DX2                !
 ! A149  A(10,24,32)           159.9384         estimate D2E/DX2                !
 ! A150  A(13,24,25)           128.2838         estimate D2E/DX2                !
 ! A151  A(13,24,26)            82.7262         estimate D2E/DX2                !
 ! A152  A(13,24,28)           123.7411         estimate D2E/DX2                !
 ! A153  A(13,24,30)           160.8261         estimate D2E/DX2                !
 ! A154  A(13,24,32)           131.7066         estimate D2E/DX2                !
 ! A155  A(17,24,25)           110.833          estimate D2E/DX2                !
 ! A156  A(17,24,26)            87.522          estimate D2E/DX2                !
 ! A157  A(17,24,30)           133.2567         estimate D2E/DX2                !
 ! A158  A(17,24,32)            86.2969         estimate D2E/DX2                !
 ! A159  A(25,24,26)           148.9855         estimate D2E/DX2                !
 ! A160  A(25,24,28)            79.9282         estimate D2E/DX2                !
 ! A161  A(25,24,30)            70.1881         estimate D2E/DX2                !
 ! A162  A(25,24,32)            83.1285         estimate D2E/DX2                !
 ! A163  A(26,24,28)            82.2193         estimate D2E/DX2                !
 ! A164  A(26,24,30)            79.0121         estimate D2E/DX2                !
 ! A165  A(26,24,32)            73.0208         estimate D2E/DX2                !
 ! A166  A(28,24,32)            93.9916         estimate D2E/DX2                !
 ! A167  A(9,26,24)             89.0029         estimate D2E/DX2                !
 ! A168  A(24,26,27)            93.4673         estimate D2E/DX2                !
 ! A169  A(9,27,15)            105.6145         estimate D2E/DX2                !
 ! A170  A(9,27,28)             95.4232         estimate D2E/DX2                !
 ! A171  A(9,27,29)            151.6657         estimate D2E/DX2                !
 ! A172  A(11,27,15)            99.4297         estimate D2E/DX2                !
 ! A173  A(11,27,26)           109.356          estimate D2E/DX2                !
 ! A174  A(11,27,28)            81.1343         estimate D2E/DX2                !
 ! A175  A(11,27,29)           150.8844         estimate D2E/DX2                !
 ! A176  A(12,27,26)            96.8832         estimate D2E/DX2                !
 ! A177  A(12,27,28)           133.4645         estimate D2E/DX2                !
 ! A178  A(12,27,29)           140.472          estimate D2E/DX2                !
 ! A179  A(15,27,26)           107.1517         estimate D2E/DX2                !
 ! A180  A(15,27,28)           154.3285         estimate D2E/DX2                !
 ! A181  A(15,27,29)            86.4661         estimate D2E/DX2                !
 ! A182  A(26,27,28)            96.6352         estimate D2E/DX2                !
 ! A183  A(26,27,29)            95.7712         estimate D2E/DX2                !
 ! A184  A(28,27,29)            81.5803         estimate D2E/DX2                !
 ! A185  A(24,28,27)            87.4325         estimate D2E/DX2                !
 ! A186  A(27,28,30)            84.9375         estimate D2E/DX2                !
 ! A187  A(27,29,30)            85.6508         estimate D2E/DX2                !
 ! A188  A(24,30,29)           116.6919         estimate D2E/DX2                !
 ! A189  A(24,30,31)           133.9074         estimate D2E/DX2                !
 ! A190  A(28,30,29)            92.8687         estimate D2E/DX2                !
 ! A191  A(28,30,31)           117.6689         estimate D2E/DX2                !
 ! A192  A(28,30,32)           116.1503         estimate D2E/DX2                !
 ! A193  A(29,30,31)           109.3787         estimate D2E/DX2                !
 ! A194  A(29,30,32)           103.4898         estimate D2E/DX2                !
 ! A195  A(31,30,32)           113.731          estimate D2E/DX2                !
 ! A196  L(1,6,18,8,-1)        184.1481         estimate D2E/DX2                !
 ! A197  L(2,9,10,4,-1)        190.2354         estimate D2E/DX2                !
 ! A198  L(4,9,26,2,-1)        188.4997         estimate D2E/DX2                !
 ! A199  L(6,9,27,10,-1)       177.6278         estimate D2E/DX2                !
 ! A200  L(8,9,11,1,-1)        186.9002         estimate D2E/DX2                !
 ! A201  L(21,12,27,2,-1)      180.5984         estimate D2E/DX2                !
 ! A202  L(18,13,24,8,-1)      191.8966         estimate D2E/DX2                !
 ! A203  L(17,24,28,10,-1)     176.2544         estimate D2E/DX2                !
 ! A204  L(1,6,18,8,-2)        179.9923         estimate D2E/DX2                !
 ! A205  L(2,9,10,4,-2)        172.5896         estimate D2E/DX2                !
 ! A206  L(4,9,26,2,-2)        184.7803         estimate D2E/DX2                !
 ! A207  L(6,9,27,10,-2)       172.574          estimate D2E/DX2                !
 ! A208  L(8,9,11,1,-2)        180.298          estimate D2E/DX2                !
 ! A209  L(21,12,27,2,-2)      177.4336         estimate D2E/DX2                !
 ! A210  L(18,13,24,8,-2)      183.1537         estimate D2E/DX2                !
 ! A211  L(17,24,28,10,-2)     190.3777         estimate D2E/DX2                !
 ! D1    D(2,1,5,21)            71.3037         estimate D2E/DX2                !
 ! D2    D(3,1,5,21)           -84.7711         estimate D2E/DX2                !
 ! D3    D(4,1,5,21)          -177.0991         estimate D2E/DX2                !
 ! D4    D(6,1,5,21)          -177.1408         estimate D2E/DX2                !
 ! D5    D(9,1,5,21)           127.5956         estimate D2E/DX2                !
 ! D6    D(23,1,5,21)          -17.8235         estimate D2E/DX2                !
 ! D7    D(2,1,6,7)            113.0122         estimate D2E/DX2                !
 ! D8    D(2,1,6,8)              1.0409         estimate D2E/DX2                !
 ! D9    D(2,1,6,13)            44.3641         estimate D2E/DX2                !
 ! D10   D(2,1,6,20)           -98.5132         estimate D2E/DX2                !
 ! D11   D(5,1,6,7)             -2.3712         estimate D2E/DX2                !
 ! D12   D(5,1,6,8)           -114.3425         estimate D2E/DX2                !
 ! D13   D(5,1,6,13)           -71.0193         estimate D2E/DX2                !
 ! D14   D(5,1,6,20)           146.1034         estimate D2E/DX2                !
 ! D15   D(12,1,6,7)            66.9069         estimate D2E/DX2                !
 ! D16   D(12,1,6,8)           -45.0644         estimate D2E/DX2                !
 ! D17   D(12,1,6,13)           -1.7412         estimate D2E/DX2                !
 ! D18   D(12,1,6,20)         -144.6185         estimate D2E/DX2                !
 ! D19   D(23,1,6,7)          -152.4935         estimate D2E/DX2                !
 ! D20   D(23,1,6,8)            95.5352         estimate D2E/DX2                !
 ! D21   D(23,1,6,13)          138.8584         estimate D2E/DX2                !
 ! D22   D(23,1,6,20)           -4.0189         estimate D2E/DX2                !
 ! D23   D(3,1,9,8)             14.0691         estimate D2E/DX2                !
 ! D24   D(3,1,9,10)           -79.6316         estimate D2E/DX2                !
 ! D25   D(3,1,9,11)          -166.2289         estimate D2E/DX2                !
 ! D26   D(3,1,9,26)            85.7203         estimate D2E/DX2                !
 ! D27   D(3,1,9,27)           146.8179         estimate D2E/DX2                !
 ! D28   D(5,1,9,8)            179.4273         estimate D2E/DX2                !
 ! D29   D(5,1,9,10)            85.7265         estimate D2E/DX2                !
 ! D30   D(5,1,9,11)            -0.8707         estimate D2E/DX2                !
 ! D31   D(5,1,9,26)          -108.9216         estimate D2E/DX2                !
 ! D32   D(5,1,9,27)           -47.824          estimate D2E/DX2                !
 ! D33   D(23,1,9,8)           -88.9913         estimate D2E/DX2                !
 ! D34   D(23,1,9,10)          177.3079         estimate D2E/DX2                !
 ! D35   D(23,1,9,11)           90.7107         estimate D2E/DX2                !
 ! D36   D(23,1,9,26)          -17.3402         estimate D2E/DX2                !
 ! D37   D(23,1,9,27)           43.7574         estimate D2E/DX2                !
 ! D38   D(3,1,12,11)         -115.5404         estimate D2E/DX2                !
 ! D39   D(3,1,12,14)           83.983          estimate D2E/DX2                !
 ! D40   D(3,1,12,15)           -8.4032         estimate D2E/DX2                !
 ! D41   D(3,1,12,21)          111.3148         estimate D2E/DX2                !
 ! D42   D(3,1,12,27)          -67.1426         estimate D2E/DX2                !
 ! D43   D(4,1,12,11)            1.5271         estimate D2E/DX2                !
 ! D44   D(4,1,12,14)         -158.9495         estimate D2E/DX2                !
 ! D45   D(4,1,12,15)          108.6644         estimate D2E/DX2                !
 ! D46   D(4,1,12,21)         -131.6176         estimate D2E/DX2                !
 ! D47   D(4,1,12,27)           49.9249         estimate D2E/DX2                !
 ! D48   D(6,1,12,11)          -46.1749         estimate D2E/DX2                !
 ! D49   D(6,1,12,14)          153.3486         estimate D2E/DX2                !
 ! D50   D(6,1,12,15)           60.9624         estimate D2E/DX2                !
 ! D51   D(6,1,12,21)         -179.3196         estimate D2E/DX2                !
 ! D52   D(6,1,12,27)            2.2229         estimate D2E/DX2                !
 ! D53   D(23,1,12,11)         160.6648         estimate D2E/DX2                !
 ! D54   D(23,1,12,14)           0.1882         estimate D2E/DX2                !
 ! D55   D(23,1,12,15)         -92.198          estimate D2E/DX2                !
 ! D56   D(23,1,12,21)          27.52           estimate D2E/DX2                !
 ! D57   D(23,1,12,27)        -150.9374         estimate D2E/DX2                !
 ! D58   D(2,1,23,21)          -85.9512         estimate D2E/DX2                !
 ! D59   D(3,1,23,21)          173.9568         estimate D2E/DX2                !
 ! D60   D(4,1,23,21)           80.9616         estimate D2E/DX2                !
 ! D61   D(5,1,23,21)           18.5885         estimate D2E/DX2                !
 ! D62   D(6,1,23,21)          177.5264         estimate D2E/DX2                !
 ! D63   D(9,1,23,21)          -75.1844         estimate D2E/DX2                !
 ! D64   D(12,1,23,21)         -35.2782         estimate D2E/DX2                !
 ! D65   D(1,2,9,12)           -82.8187         estimate D2E/DX2                !
 ! D66   D(1,4,6,9)             71.9307         estimate D2E/DX2                !
 ! D67   D(1,5,21,14)          -94.233          estimate D2E/DX2                !
 ! D68   D(1,5,21,22)          144.6541         estimate D2E/DX2                !
 ! D69   D(1,5,21,23)           21.8096         estimate D2E/DX2                !
 ! D70   D(3,6,9,2)            -20.5235         estimate D2E/DX2                !
 ! D71   D(3,6,9,10)           171.9887         estimate D2E/DX2                !
 ! D72   D(3,6,9,11)            94.1788         estimate D2E/DX2                !
 ! D73   D(3,6,9,12)            23.147          estimate D2E/DX2                !
 ! D74   D(3,6,9,26)          -101.5936         estimate D2E/DX2                !
 ! D75   D(7,6,9,2)            178.0799         estimate D2E/DX2                !
 ! D76   D(7,6,9,10)            10.5921         estimate D2E/DX2                !
 ! D77   D(7,6,9,11)           -67.2178         estimate D2E/DX2                !
 ! D78   D(7,6,9,12)          -138.2496         estimate D2E/DX2                !
 ! D79   D(7,6,9,26)            97.0098         estimate D2E/DX2                !
 ! D80   D(13,6,9,2)           131.0817         estimate D2E/DX2                !
 ! D81   D(13,6,9,10)          -36.4061         estimate D2E/DX2                !
 ! D82   D(13,6,9,11)         -114.216          estimate D2E/DX2                !
 ! D83   D(13,6,9,12)          174.7522         estimate D2E/DX2                !
 ! D84   D(13,6,9,26)           50.0116         estimate D2E/DX2                !
 ! D85   D(18,6,9,2)           138.2213         estimate D2E/DX2                !
 ! D86   D(18,6,9,10)          -29.2664         estimate D2E/DX2                !
 ! D87   D(18,6,9,11)         -107.0764         estimate D2E/DX2                !
 ! D88   D(18,6,9,12)         -178.1082         estimate D2E/DX2                !
 ! D89   D(18,6,9,26)           57.1513         estimate D2E/DX2                !
 ! D90   D(20,6,9,2)            71.0288         estimate D2E/DX2                !
 ! D91   D(20,6,9,10)          -96.4589         estimate D2E/DX2                !
 ! D92   D(20,6,9,11)         -174.2689         estimate D2E/DX2                !
 ! D93   D(20,6,9,12)          114.6993         estimate D2E/DX2                !
 ! D94   D(20,6,9,26)          -10.0413         estimate D2E/DX2                !
 ! D95   D(1,6,13,10)           44.423          estimate D2E/DX2                !
 ! D96   D(1,6,13,16)         -155.8185         estimate D2E/DX2                !
 ! D97   D(1,6,13,17)          -67.8091         estimate D2E/DX2                !
 ! D98   D(1,6,13,24)            4.0338         estimate D2E/DX2                !
 ! D99   D(3,6,13,10)          106.2554         estimate D2E/DX2                !
 ! D100  D(3,6,13,16)          -93.9861         estimate D2E/DX2                !
 ! D101  D(3,6,13,17)           -5.9767         estimate D2E/DX2                !
 ! D102  D(3,6,13,24)           65.8662         estimate D2E/DX2                !
 ! D103  D(4,6,13,10)           -3.5862         estimate D2E/DX2                !
 ! D104  D(4,6,13,16)          156.1723         estimate D2E/DX2                !
 ! D105  D(4,6,13,17)         -115.8183         estimate D2E/DX2                !
 ! D106  D(4,6,13,24)          -43.9754         estimate D2E/DX2                !
 ! D107  D(9,6,13,10)           41.2443         estimate D2E/DX2                !
 ! D108  D(9,6,13,16)         -158.9972         estimate D2E/DX2                !
 ! D109  D(9,6,13,17)          -70.9878         estimate D2E/DX2                !
 ! D110  D(9,6,13,24)            0.8551         estimate D2E/DX2                !
 ! D111  D(20,6,13,10)        -162.4643         estimate D2E/DX2                !
 ! D112  D(20,6,13,16)          -2.7058         estimate D2E/DX2                !
 ! D113  D(20,6,13,17)          85.3035         estimate D2E/DX2                !
 ! D114  D(20,6,13,24)         157.1464         estimate D2E/DX2                !
 ! D115  D(3,6,18,16)          114.1143         estimate D2E/DX2                !
 ! D116  D(3,6,18,19)          -69.8014         estimate D2E/DX2                !
 ! D117  D(4,6,18,16)         -106.5276         estimate D2E/DX2                !
 ! D118  D(4,6,18,19)           69.5567         estimate D2E/DX2                !
 ! D119  D(8,6,18,16)           10.7468         estimate D2E/DX2                !
 ! D120  D(8,6,18,19)         -173.1689         estimate D2E/DX2                !
 ! D121  D(9,6,18,16)          -38.3242         estimate D2E/DX2                !
 ! D122  D(9,6,18,19)          137.76           estimate D2E/DX2                !
 ! D123  D(6,7,13,18)          -80.5856         estimate D2E/DX2                !
 ! D124  D(13,8,9,1)          -131.2328         estimate D2E/DX2                !
 ! D125  D(13,8,9,2)           176.1976         estimate D2E/DX2                !
 ! D126  D(13,8,9,4)           -77.8482         estimate D2E/DX2                !
 ! D127  D(13,8,9,10)            5.3066         estimate D2E/DX2                !
 ! D128  D(13,8,9,12)          174.6302         estimate D2E/DX2                !
 ! D129  D(13,8,9,26)           92.8493         estimate D2E/DX2                !
 ! D130  D(13,8,9,27)           96.279          estimate D2E/DX2                !
 ! D131  D(9,8,13,7)            79.3369         estimate D2E/DX2                !
 ! D132  D(9,8,13,10)           -6.0994         estimate D2E/DX2                !
 ! D133  D(9,8,13,16)          170.7497         estimate D2E/DX2                !
 ! D134  D(9,8,13,17)         -106.6717         estimate D2E/DX2                !
 ! D135  D(9,8,13,18)          124.7169         estimate D2E/DX2                !
 ! D136  D(9,8,13,24)          -58.4368         estimate D2E/DX2                !
 ! D137  D(1,9,10,13)           87.6097         estimate D2E/DX2                !
 ! D138  D(1,9,10,24)          166.4513         estimate D2E/DX2                !
 ! D139  D(4,9,10,13)           94.4136         estimate D2E/DX2                !
 ! D140  D(4,9,10,24)          173.2552         estimate D2E/DX2                !
 ! D141  D(6,9,10,13)           43.1416         estimate D2E/DX2                !
 ! D142  D(6,9,10,24)          121.9832         estimate D2E/DX2                !
 ! D143  D(8,9,10,13)           -5.2829         estimate D2E/DX2                !
 ! D144  D(8,9,10,24)           73.5587         estimate D2E/DX2                !
 ! D145  D(11,9,10,13)         179.7116         estimate D2E/DX2                !
 ! D146  D(11,9,10,24)        -101.4468         estimate D2E/DX2                !
 ! D147  D(12,9,10,13)        -173.768          estimate D2E/DX2                !
 ! D148  D(12,9,10,24)         -94.9264         estimate D2E/DX2                !
 ! D149  D(26,9,10,13)         -81.9886         estimate D2E/DX2                !
 ! D150  D(26,9,10,24)          -3.147          estimate D2E/DX2                !
 ! D151  D(27,9,10,13)        -129.4324         estimate D2E/DX2                !
 ! D152  D(27,9,10,24)         -50.5908         estimate D2E/DX2                !
 ! D153  D(4,9,12,5)            -0.5278         estimate D2E/DX2                !
 ! D154  D(4,9,12,14)          -96.0017         estimate D2E/DX2                !
 ! D155  D(4,9,12,15)          163.9862         estimate D2E/DX2                !
 ! D156  D(4,9,12,21)          -41.6265         estimate D2E/DX2                !
 ! D157  D(6,9,12,5)            45.5802         estimate D2E/DX2                !
 ! D158  D(6,9,12,14)          -49.8937         estimate D2E/DX2                !
 ! D159  D(6,9,12,15)         -149.9058         estimate D2E/DX2                !
 ! D160  D(6,9,12,21)            4.4815         estimate D2E/DX2                !
 ! D161  D(8,9,12,5)           108.5271         estimate D2E/DX2                !
 ! D162  D(8,9,12,14)           13.0532         estimate D2E/DX2                !
 ! D163  D(8,9,12,15)          -86.9589         estimate D2E/DX2                !
 ! D164  D(8,9,12,21)           67.4284         estimate D2E/DX2                !
 ! D165  D(10,9,12,5)          -86.8041         estimate D2E/DX2                !
 ! D166  D(10,9,12,14)         177.722          estimate D2E/DX2                !
 ! D167  D(10,9,12,15)          77.7099         estimate D2E/DX2                !
 ! D168  D(10,9,12,21)        -127.9028         estimate D2E/DX2                !
 ! D169  D(26,9,12,5)         -176.773          estimate D2E/DX2                !
 ! D170  D(26,9,12,14)          87.7531         estimate D2E/DX2                !
 ! D171  D(26,9,12,15)         -12.259          estimate D2E/DX2                !
 ! D172  D(26,9,12,21)         142.1283         estimate D2E/DX2                !
 ! D173  D(1,9,26,24)         -167.1702         estimate D2E/DX2                !
 ! D174  D(2,9,26,24)         -170.7181         estimate D2E/DX2                !
 ! D175  D(6,9,26,24)          -83.6175         estimate D2E/DX2                !
 ! D176  D(8,9,26,24)          -90.0356         estimate D2E/DX2                !
 ! D177  D(10,9,26,24)           2.7943         estimate D2E/DX2                !
 ! D178  D(11,9,26,24)          85.3383         estimate D2E/DX2                !
 ! D179  D(12,9,26,24)         138.329          estimate D2E/DX2                !
 ! D180  D(1,9,27,15)          -21.5248         estimate D2E/DX2                !
 ! D181  D(1,9,27,28)          143.6184         estimate D2E/DX2                !
 ! D182  D(1,9,27,29)         -134.0728         estimate D2E/DX2                !
 ! D183  D(2,9,27,15)           20.7007         estimate D2E/DX2                !
 ! D184  D(2,9,27,28)         -174.156          estimate D2E/DX2                !
 ! D185  D(2,9,27,29)          -91.8472         estimate D2E/DX2                !
 ! D186  D(4,9,27,15)          -92.3352         estimate D2E/DX2                !
 ! D187  D(4,9,27,28)           72.8081         estimate D2E/DX2                !
 ! D188  D(4,9,27,29)          155.1169         estimate D2E/DX2                !
 ! D189  D(8,9,27,15)           95.948          estimate D2E/DX2                !
 ! D190  D(8,9,27,28)          -98.9088         estimate D2E/DX2                !
 ! D191  D(8,9,27,29)          -16.5999         estimate D2E/DX2                !
 ! D192  D(10,9,27,15)        -171.5788         estimate D2E/DX2                !
 ! D193  D(10,9,27,28)          -6.4355         estimate D2E/DX2                !
 ! D194  D(10,9,27,29)          75.8733         estimate D2E/DX2                !
 ! D195  D(9,10,13,6)          -44.2752         estimate D2E/DX2                !
 ! D196  D(9,10,13,7)          -97.1546         estimate D2E/DX2                !
 ! D197  D(9,10,13,8)            6.0205         estimate D2E/DX2                !
 ! D198  D(9,10,13,16)        -166.2315         estimate D2E/DX2                !
 ! D199  D(9,10,13,17)         101.5021         estimate D2E/DX2                !
 ! D200  D(9,10,13,18)         -99.1269         estimate D2E/DX2                !
 ! D201  D(9,10,24,17)         -84.1981         estimate D2E/DX2                !
 ! D202  D(9,10,24,25)         158.5764         estimate D2E/DX2                !
 ! D203  D(9,10,24,26)           2.9483         estimate D2E/DX2                !
 ! D204  D(9,10,24,28)          85.4242         estimate D2E/DX2                !
 ! D205  D(9,10,24,30)          78.2441         estimate D2E/DX2                !
 ! D206  D(9,10,24,32)          21.6124         estimate D2E/DX2                !
 ! D207  D(9,11,12,27)         -79.0317         estimate D2E/DX2                !
 ! D208  D(1,12,21,22)         143.9655         estimate D2E/DX2                !
 ! D209  D(1,12,21,23)         -33.6208         estimate D2E/DX2                !
 ! D210  D(2,12,21,22)        -169.9737         estimate D2E/DX2                !
 ! D211  D(2,12,21,23)          12.4401         estimate D2E/DX2                !
 ! D212  D(9,12,21,22)         141.5349         estimate D2E/DX2                !
 ! D213  D(9,12,21,23)         -36.0514         estimate D2E/DX2                !
 ! D214  D(11,12,21,22)         72.8543         estimate D2E/DX2                !
 ! D215  D(11,12,21,23)       -104.732          estimate D2E/DX2                !
 ! D216  D(15,12,21,22)        -70.268          estimate D2E/DX2                !
 ! D217  D(15,12,21,23)        112.1457         estimate D2E/DX2                !
 ! D218  D(1,12,27,26)          38.6869         estimate D2E/DX2                !
 ! D219  D(1,12,27,28)         -67.2613         estimate D2E/DX2                !
 ! D220  D(1,12,27,29)         146.4712         estimate D2E/DX2                !
 ! D221  D(2,12,27,26)          -6.6876         estimate D2E/DX2                !
 ! D222  D(2,12,27,28)        -112.6358         estimate D2E/DX2                !
 ! D223  D(2,12,27,29)         101.0968         estimate D2E/DX2                !
 ! D224  D(5,12,27,26)         106.155          estimate D2E/DX2                !
 ! D225  D(5,12,27,28)           0.2068         estimate D2E/DX2                !
 ! D226  D(5,12,27,29)        -146.0607         estimate D2E/DX2                !
 ! D227  D(14,12,27,26)       -102.2031         estimate D2E/DX2                !
 ! D228  D(14,12,27,28)        151.8487         estimate D2E/DX2                !
 ! D229  D(14,12,27,29)          5.5812         estimate D2E/DX2                !
 ! D230  D(8,13,18,19)         175.9831         estimate D2E/DX2                !
 ! D231  D(8,13,18,20)          -7.608          estimate D2E/DX2                !
 ! D232  D(10,13,18,19)        -72.5559         estimate D2E/DX2                !
 ! D233  D(10,13,18,20)        103.853          estimate D2E/DX2                !
 ! D234  D(17,13,18,19)         81.1071         estimate D2E/DX2                !
 ! D235  D(17,13,18,20)       -102.484          estimate D2E/DX2                !
 ! D236  D(6,13,24,25)         142.8673         estimate D2E/DX2                !
 ! D237  D(6,13,24,26)         -37.7196         estimate D2E/DX2                !
 ! D238  D(6,13,24,28)          37.8394         estimate D2E/DX2                !
 ! D239  D(6,13,24,30)         -19.9159         estimate D2E/DX2                !
 ! D240  D(6,13,24,32)         -97.1836         estimate D2E/DX2                !
 ! D241  D(7,13,24,25)          68.5897         estimate D2E/DX2                !
 ! D242  D(7,13,24,26)        -111.9972         estimate D2E/DX2                !
 ! D243  D(7,13,24,28)         -36.4381         estimate D2E/DX2                !
 ! D244  D(7,13,24,30)         -94.1934         estimate D2E/DX2                !
 ! D245  D(7,13,24,32)        -171.4611         estimate D2E/DX2                !
 ! D246  D(8,13,24,25)        -171.2913         estimate D2E/DX2                !
 ! D247  D(8,13,24,26)           8.1218         estimate D2E/DX2                !
 ! D248  D(8,13,24,28)          83.6808         estimate D2E/DX2                !
 ! D249  D(8,13,24,30)          25.9256         estimate D2E/DX2                !
 ! D250  D(8,13,24,32)         -51.3421         estimate D2E/DX2                !
 ! D251  D(16,13,24,25)        -62.6791         estimate D2E/DX2                !
 ! D252  D(16,13,24,26)        116.734          estimate D2E/DX2                !
 ! D253  D(16,13,24,28)       -167.707          estimate D2E/DX2                !
 ! D254  D(16,13,24,30)        134.5377         estimate D2E/DX2                !
 ! D255  D(16,13,24,32)         57.2701         estimate D2E/DX2                !
 ! D256  D(5,21,23,1)          -21.1622         estimate D2E/DX2                !
 ! D257  D(12,21,23,1)          34.3474         estimate D2E/DX2                !
 ! D258  D(14,21,23,1)          89.9521         estimate D2E/DX2                !
 ! D259  D(22,21,23,1)        -144.1752         estimate D2E/DX2                !
 ! D260  D(10,24,26,9)          -2.9956         estimate D2E/DX2                !
 ! D261  D(10,24,26,27)         73.0655         estimate D2E/DX2                !
 ! D262  D(13,24,26,9)          45.8422         estimate D2E/DX2                !
 ! D263  D(13,24,26,27)        121.9034         estimate D2E/DX2                !
 ! D264  D(17,24,26,9)          96.7125         estimate D2E/DX2                !
 ! D265  D(17,24,26,27)        172.7737         estimate D2E/DX2                !
 ! D266  D(25,24,26,9)        -135.0519         estimate D2E/DX2                !
 ! D267  D(25,24,26,27)        -58.9907         estimate D2E/DX2                !
 ! D268  D(28,24,26,9)         -79.7908         estimate D2E/DX2                !
 ! D269  D(28,24,26,27)         -3.7296         estimate D2E/DX2                !
 ! D270  D(30,24,26,9)        -128.2863         estimate D2E/DX2                !
 ! D271  D(30,24,26,27)        -52.2252         estimate D2E/DX2                !
 ! D272  D(32,24,26,9)        -176.4047         estimate D2E/DX2                !
 ! D273  D(32,24,26,27)       -100.3435         estimate D2E/DX2                !
 ! D274  D(10,24,28,27)        -86.4691         estimate D2E/DX2                !
 ! D275  D(13,24,28,27)        -72.506          estimate D2E/DX2                !
 ! D276  D(25,24,28,27)        157.8454         estimate D2E/DX2                !
 ! D277  D(26,24,28,27)          3.3156         estimate D2E/DX2                !
 ! D278  D(32,24,28,27)         75.5581         estimate D2E/DX2                !
 ! D279  D(10,24,30,29)        -67.6383         estimate D2E/DX2                !
 ! D280  D(10,24,30,31)        110.4432         estimate D2E/DX2                !
 ! D281  D(13,24,30,29)         -5.6661         estimate D2E/DX2                !
 ! D282  D(13,24,30,31)        172.4154         estimate D2E/DX2                !
 ! D283  D(17,24,30,29)         88.257          estimate D2E/DX2                !
 ! D284  D(17,24,30,31)        -93.6615         estimate D2E/DX2                !
 ! D285  D(25,24,30,29)       -171.3688         estimate D2E/DX2                !
 ! D286  D(25,24,30,31)          6.7127         estimate D2E/DX2                !
 ! D287  D(26,24,30,29)         12.3305         estimate D2E/DX2                !
 ! D288  D(26,24,30,31)       -169.588          estimate D2E/DX2                !
 ! D289  D(24,26,27,11)        -78.8986         estimate D2E/DX2                !
 ! D290  D(24,26,27,12)       -131.3643         estimate D2E/DX2                !
 ! D291  D(24,26,27,15)        174.2342         estimate D2E/DX2                !
 ! D292  D(24,26,27,28)          4.0021         estimate D2E/DX2                !
 ! D293  D(24,26,27,29)         86.1622         estimate D2E/DX2                !
 ! D294  D(9,27,28,24)          52.735          estimate D2E/DX2                !
 ! D295  D(9,27,28,30)         124.8087         estimate D2E/DX2                !
 ! D296  D(11,27,28,24)        104.6443         estimate D2E/DX2                !
 ! D297  D(11,27,28,30)        176.7179         estimate D2E/DX2                !
 ! D298  D(12,27,28,24)        102.0585         estimate D2E/DX2                !
 ! D299  D(12,27,28,30)        174.1322         estimate D2E/DX2                !
 ! D300  D(15,27,28,24)       -162.0168         estimate D2E/DX2                !
 ! D301  D(15,27,28,30)        -89.9431         estimate D2E/DX2                !
 ! D302  D(26,27,28,24)         -3.9921         estimate D2E/DX2                !
 ! D303  D(26,27,28,30)         68.0815         estimate D2E/DX2                !
 ! D304  D(29,27,28,24)        -98.875          estimate D2E/DX2                !
 ! D305  D(29,27,28,30)        -26.8013         estimate D2E/DX2                !
 ! D306  D(9,27,29,30)         -58.1606         estimate D2E/DX2                !
 ! D307  D(11,27,29,30)         81.7703         estimate D2E/DX2                !
 ! D308  D(12,27,29,30)       -176.4029         estimate D2E/DX2                !
 ! D309  D(15,27,29,30)       -175.1401         estimate D2E/DX2                !
 ! D310  D(26,27,29,30)        -68.2385         estimate D2E/DX2                !
 ! D311  D(28,27,29,30)         27.6413         estimate D2E/DX2                !
 ! D312  D(27,28,30,29)         30.3766         estimate D2E/DX2                !
 ! D313  D(27,28,30,31)        144.0422         estimate D2E/DX2                !
 ! D314  D(27,28,30,32)        -76.1704         estimate D2E/DX2                !
 ! D315  D(27,29,30,24)         27.878          estimate D2E/DX2                !
 ! D316  D(27,29,30,28)        -29.9603         estimate D2E/DX2                !
 ! D317  D(27,29,30,31)       -150.6569         estimate D2E/DX2                !
 ! D318  D(27,29,30,32)         87.8031         estimate D2E/DX2                !
 --------------------------------------------------------------------------------
 Trust Radius=3.00D-01 FncErr=1.00D-07 GrdErr=1.00D-06 EigMax=2.50D+02 EigMin=1.00D-04
 Number of steps in this run=    192 maximum allowed number of steps=    192.
 GradGradGradGradGradGradGradGradGradGradGradGradGradGradGradGradGradGrad

                          Input orientation:                          
 ---------------------------------------------------------------------
 Center     Atomic      Atomic             Coordinates (Angstroms)
 Number     Number       Type             X           Y           Z
 ---------------------------------------------------------------------
      1         42           0        0.345446    1.827252   12.287241
      2         16           0        1.312997    3.963450   12.066302
      3         16           0       -1.664901    2.398723   13.293633
      4         16           0       -0.526402    0.990829   10.234190
      5         16           0        2.225884    0.216996   11.732357
      6         42           0       -2.190161    2.566926   10.942951
      7         16           0       -3.169086    1.817411    8.752715
      8         16           0       -1.398422    4.702726   10.597003
      9         42           0        0.521360    3.188003    9.892701
     10         16           0       -0.433219    2.912191    7.504030
     11         16           0        2.396589    1.884092    8.962887
     12         42           0        2.965875    2.571931   11.173819
     13         42           0       -2.160726    4.140063    8.483461
     14         16           0        4.367478    2.646582   13.260308
     15         16           0        4.520432    4.297849   10.483234
     16         16           0       -4.451434    5.121176    8.662112
     17         16           0       -1.652009    6.308922    7.599143
     18         42           0       -4.832272    3.114106    9.614064
     19         16           0       -6.755118    2.327577    9.195792
     20         16           0       -4.419232    3.216647   11.819061
     21         42           0        2.981133    0.965024   13.776594
     22         16           0        3.968766   -0.534697   14.902339
     23         16           0        1.155238    1.725461   14.766767
     24         42           0        0.170390    5.137847    6.791593
     25         16           0        0.290761    5.292274    4.668463
     26         16           0        1.326781    5.497483    9.215023
     27         42           0        3.065045    4.160141    8.735815
     28         16           0        2.427471    3.701136    6.338479
     29         16           0        4.479548    5.967647    7.620344
     30         42           0        2.919674    5.943292    5.993838
     31         16           0        3.816058    6.481404    4.152640
     32         16           0        1.387878    7.413923    6.715897
 ---------------------------------------------------------------------
                    Distance matrix (angstroms):
                    1          2          3          4          5
     1  Mo   0.000000
     2  S    2.355485   0.000000
     3  S    2.319676   3.580864   0.000000
     4  S    2.382171   3.946707   3.555072   0.000000
     5  S    2.537098   3.870504   4.726068   3.227755   0.000000
     6  Mo   2.963703   3.935011   2.414518   2.398858   5.064266
     7  S    4.984466   5.972806   4.818758   3.140348   6.367519
     8  S    3.763819   3.171303   3.556860   3.830174   5.877618
     9  Mo   2.759785   2.439785   4.119349   2.458047   3.888010
    10  S    4.966137   4.996873   5.941397   3.339774   5.675707
    11  S    3.906629   3.889613   5.959522   3.310288   3.237022
    12  Mo   2.942941   2.337703   5.095851   3.946997   2.530864
    13  Mo   5.108692   4.993465   5.139636   3.956481   6.722211
    14  S    4.218400   3.534069   6.037561   5.987401   3.581054
    15  S    5.175790   3.592432   7.054315   6.038952   4.845474
    16  S    6.855768   6.793931   6.052066   5.910759   8.835381
    17  S    6.786270   5.852180   6.907752   6.040909   8.320641
    18  Mo   5.967464   6.670771   4.907468   4.840803   7.918205
    19  S    7.760502   8.718394   6.535111   6.454616   9.568025
    20  S    4.985155   5.785956   3.229505   4.756071   7.291296
    21  Mo   3.147770   3.833841   4.886141   4.985187   2.304095
    22  S    5.054304   5.943866   6.552182   6.657731   3.694789
    23  S    2.610397   3.510839   3.252167   4.889975   3.553786
    24  Mo   6.418164   5.523343   7.290241   5.434588   7.269868
    25  S    8.369895   7.585431   9.305418   7.081490   8.910766
    26  S    4.885912   3.237783   5.931908   4.978245   5.918522
    27  Mo   5.044920   3.768356   6.800639   5.018781   5.023131
    28  S    6.575260   5.841132   8.174225   5.589964   6.424468
    29  S    7.484223   5.814671   9.092727   7.527313   7.420084
    30  Mo   7.948293   6.586046   9.320370   7.374477   8.136486
    31  S    9.993899   8.673607  11.413455   9.273005   9.961103
    32  S    7.958482   6.366962   8.816933   7.569610   8.812655
                    6          7          8          9         10
     6  Mo   0.000000
     7  S    2.513404   0.000000
     8  S    2.303947   3.855086   0.000000
     9  Mo   2.973400   4.098473   2.544797   0.000000
    10  S    3.877142   3.200426   3.701907   2.587092   0.000000
    11  S    5.042340   5.570041   5.001714   2.466013   3.345604
    12  Mo   5.161205   6.638433   4.890817   2.827802   5.013678
    13  Mo   2.919712   2.546370   2.316194   3.175840   2.334788
    14  S    6.955510   8.820755   6.675816   5.140675   7.500132
    15  S    6.945466   8.262927   5.933776   4.192024   5.944271
    16  S    4.103630   3.545065   3.638652   5.475417   4.729357
    17  S    5.047098   4.879131   3.410475   4.441180   3.610025
    18  Mo   3.007673   2.278053   3.909119   5.361387   4.883102
    19  S    4.893739   3.649139   6.024858   7.360241   6.570406
    20  S    2.481625   3.594886   3.581501   5.302936   5.882218
    21  Mo   6.110475   7.986934   6.577288   5.106539   7.402318
    22  S    7.951679   9.710778   8.647151   7.130188   9.273267
    23  S    5.149886   7.407905   5.724702   5.128094   7.528537
    24  Mo   5.423616   5.101313   4.139039   3.679938   2.413598
    25  S    7.276792   6.381718   6.192616   5.636825   3.772185
    26  S    4.893136   5.828334   3.157252   2.538040   3.564945
    27  Mo   5.918359   6.659809   4.866308   2.958677   3.913122
    28  S    6.618921   6.379530   5.811684   4.065595   3.188180
    29  S    8.190826   8.775439   6.709028   5.343901   5.786590
    30  Mo   7.874261   7.855399   6.432269   5.342720   4.765516
    31  S    9.874519   9.576312   8.478462   7.392552   6.482858
    32  S    7.359601   7.499033   5.493363   5.357363   4.919669
                   11         12         13         14         15
    11  S    0.000000
    12  Mo   2.384414   0.000000
    13  Mo   5.107678   5.998258   0.000000
    14  S    4.788906   2.514657   8.225947   0.000000
    15  S    3.556457   2.423293   6.975805   3.234535   0.000000
    16  S    7.580541   8.235520   2.498368  10.248914   9.191775
    17  S    6.150615   6.933128   2.396823   9.038570   7.103620
    18  Mo   7.361616   7.971066   3.077013   9.907021   9.467300
    19  S    9.165406   9.923205   4.990086  11.846274  11.518572
    20  S    7.509251   7.441223   4.132768   8.922356   9.103352
    21  Mo   4.935398   3.058892   8.033483   2.239674   4.931874
    22  S    6.602982   4.955683  10.031254   3.602190   6.571630
    23  S    5.937267   4.111471   7.503723   3.665565   6.024149
    24  Mo   4.500822   5.796772   3.048293   8.103470   5.766860
    25  S    5.873014   7.541628   4.678845   9.871125   7.258826
    26  S    3.776858   3.883602   3.813198   5.808425   3.639627
    27  Mo   2.383022   2.911376   5.231899   4.945526   2.278286
    28  S    3.192197   4.994547   5.083813   7.265496   4.681404
    29  S    4.776668   5.142886   6.941057   6.546085   3.314519
    30  Mo   5.056281   6.180648   5.938040   8.109625   5.042280
    31  S    6.803576   8.081073   7.743374   9.897451   6.733534
    32  S    6.053552   6.768163   5.141501   8.627565   5.806517
                   16         17         18         19         20
    16  S    0.000000
    17  S    3.221401   0.000000
    18  Mo   2.253792   4.937695   0.000000
    19  S    3.660051   6.666492   2.119178   0.000000
    20  S    3.687085   5.918395   2.245691   3.623306   0.000000
    21  Mo   9.933508   9.390642   9.110132  10.845962   7.979169
    22  S   11.909202  11.478890  10.896692  12.480344   9.692146
    23  S    8.957258   8.958995   8.020534   9.693918   6.479763
    24  Mo   4.986018   2.311859   6.090033   7.851143   7.073265
    25  S    6.202171   3.660166   7.446399   8.884287   8.810409
    26  S    5.816793   3.484636   6.616166   8.681346   6.708196
    27  Mo   7.578026   5.306588   8.014557  10.000274   8.149294
    28  S    7.398319   5.003197   7.986109   9.714466   8.783442
    29  S    9.031292   6.141084   9.941208  11.914272  10.216923
    30  Mo   7.882182   4.859113   9.011271  10.813302   9.758451
    31  S    9.515092   6.465902  10.768447  12.427285  11.715488
    32  S    6.568257   3.352919   8.098028   9.916107   8.796700
                   21         22         23         24         25
    21  Mo   0.000000
    22  S    2.119406   0.000000
    23  S    2.211922   3.611459   0.000000
    24  Mo   8.608308  10.601397   8.730275   0.000000
    25  S   10.436534  12.337485  10.744544   2.132139   0.000000
    26  S    6.639879   8.701313   6.714122   2.709168   4.667618
    27  Mo   5.968691   7.802835   6.778452   3.621455   5.051904
    28  S    7.944709   9.677684   8.749738   2.713644   3.144233
    29  S    8.072849   9.775931   8.950896   4.465897   5.168720
    30  Mo   9.238951  11.064643   9.892806   2.973839   3.015232
    31  S   11.124210  12.837641  11.931414   4.696820   3.756038
    32  S    9.694339  11.698691   9.860488   2.582349   3.145957
                   26         27         28         29         30
    26  S    0.000000
    27  Mo   2.244924   0.000000
    28  S    3.565513   2.522777   0.000000
    29  S    3.564266   2.551896   3.315308   0.000000
    30  Mo   3.621062   3.274019   2.321272   2.253735   0.000000
    31  S    5.726458   5.192088   3.799468   3.567792   2.117328
    32  S    3.149937   4.180916   3.874014   3.531028   2.242883
                   31         32
    31  S    0.000000
    32  S    3.651840   0.000000
 Symmetry turned off by external request.
 Stoichiometry    Mo10S22
 Framework group  C1[X(Mo10S22)]
 Deg. of freedom    90
 Full point group                 C1      NOp   1
 Rotational constants (GHZ):           0.0344193           0.0313012           0.0179089
 General basis read from cards:  (5D, 7F)
 ======================================================================================================
                                       Pseudopotential Parameters
 ======================================================================================================
  Center     Atomic      Valence      Angular      Power
  Number     Number     Electrons     Momentum     of R      Exponent        Coefficient   SO-Coeffient
 ======================================================================================================
    1         42           14
                                      F and up 
                                                     0      537.9667807       -0.04694920    0.00000000
                                                     1      147.8982938      -20.20800840    0.00000000
                                                     2       45.7358898     -106.21163020    0.00000000
                                                     2       13.2911467      -41.81073680    0.00000000
                                                     2        4.7059961       -4.20541030    0.00000000
                                      S - F
                                                     0      110.2991760        2.80637170    0.00000000
                                                     1       23.2014645       44.51620120    0.00000000
                                                     2        5.3530131       82.77852270    0.00000000
                                      P - F
                                                     0       63.2901397        4.94208760    0.00000000
                                                     1       23.3315302       25.86049760    0.00000000
                                                     2       24.6759423      132.47087420    0.00000000
                                                     2        4.6493040       57.31497940    0.00000000
                                      D - F
                                                     0      104.4839977        3.00545910    0.00000000
                                                     1       66.2307245       26.36378510    0.00000000
                                                     2       39.1283176      183.38491990    0.00000000
                                                     2       13.1164437       98.44530680    0.00000000
                                                     2        3.6280263       22.49013770    0.00000000
    2         16
                                   No pseudopotential on this center.
    3         16
                                   No pseudopotential on this center.
    4         16
                                   No pseudopotential on this center.
    5         16
                                   No pseudopotential on this center.
    6         42           14
                                      F and up 
                                                     0      537.9667807       -0.04694920    0.00000000
                                                     1      147.8982938      -20.20800840    0.00000000
                                                     2       45.7358898     -106.21163020    0.00000000
                                                     2       13.2911467      -41.81073680    0.00000000
                                                     2        4.7059961       -4.20541030    0.00000000
                                      S - F
                                                     0      110.2991760        2.80637170    0.00000000
                                                     1       23.2014645       44.51620120    0.00000000
                                                     2        5.3530131       82.77852270    0.00000000
                                      P - F
                                                     0       63.2901397        4.94208760    0.00000000
                                                     1       23.3315302       25.86049760    0.00000000
                                                     2       24.6759423      132.47087420    0.00000000
                                                     2        4.6493040       57.31497940    0.00000000
                                      D - F
                                                     0      104.4839977        3.00545910    0.00000000
                                                     1       66.2307245       26.36378510    0.00000000
                                                     2       39.1283176      183.38491990    0.00000000
                                                     2       13.1164437       98.44530680    0.00000000
                                                     2        3.6280263       22.49013770    0.00000000
    7         16
                                   No pseudopotential on this center.
    8         16
                                   No pseudopotential on this center.
    9         42           14
                                      F and up 
                                                     0      537.9667807       -0.04694920    0.00000000
                                                     1      147.8982938      -20.20800840    0.00000000
                                                     2       45.7358898     -106.21163020    0.00000000
                                                     2       13.2911467      -41.81073680    0.00000000
                                                     2        4.7059961       -4.20541030    0.00000000
                                      S - F
                                                     0      110.2991760        2.80637170    0.00000000
                                                     1       23.2014645       44.51620120    0.00000000
                                                     2        5.3530131       82.77852270    0.00000000
                                      P - F
                                                     0       63.2901397        4.94208760    0.00000000
                                                     1       23.3315302       25.86049760    0.00000000
                                                     2       24.6759423      132.47087420    0.00000000
                                                     2        4.6493040       57.31497940    0.00000000
                                      D - F
                                                     0      104.4839977        3.00545910    0.00000000
                                                     1       66.2307245       26.36378510    0.00000000
                                                     2       39.1283176      183.38491990    0.00000000
                                                     2       13.1164437       98.44530680    0.00000000
                                                     2        3.6280263       22.49013770    0.00000000
   10         16
                                   No pseudopotential on this center.
   11         16
                                   No pseudopotential on this center.
   12         42           14
                                      F and up 
                                                     0      537.9667807       -0.04694920    0.00000000
                                                     1      147.8982938      -20.20800840    0.00000000
                                                     2       45.7358898     -106.21163020    0.00000000
                                                     2       13.2911467      -41.81073680    0.00000000
                                                     2        4.7059961       -4.20541030    0.00000000
                                      S - F
                                                     0      110.2991760        2.80637170    0.00000000
                                                     1       23.2014645       44.51620120    0.00000000
                                                     2        5.3530131       82.77852270    0.00000000
                                      P - F
                                                     0       63.2901397        4.94208760    0.00000000
                                                     1       23.3315302       25.86049760    0.00000000
                                                     2       24.6759423      132.47087420    0.00000000
                                                     2        4.6493040       57.31497940    0.00000000
                                      D - F
                                                     0      104.4839977        3.00545910    0.00000000
                                                     1       66.2307245       26.36378510    0.00000000
                                                     2       39.1283176      183.38491990    0.00000000
                                                     2       13.1164437       98.44530680    0.00000000
                                                     2        3.6280263       22.49013770    0.00000000
   13         42           14
                                      F and up 
                                                     0      537.9667807       -0.04694920    0.00000000
                                                     1      147.8982938      -20.20800840    0.00000000
                                                     2       45.7358898     -106.21163020    0.00000000
                                                     2       13.2911467      -41.81073680    0.00000000
                                                     2        4.7059961       -4.20541030    0.00000000
                                      S - F
                                                     0      110.2991760        2.80637170    0.00000000
                                                     1       23.2014645       44.51620120    0.00000000
                                                     2        5.3530131       82.77852270    0.00000000
                                      P - F
                                                     0       63.2901397        4.94208760    0.00000000
                                                     1       23.3315302       25.86049760    0.00000000
                                                     2       24.6759423      132.47087420    0.00000000
                                                     2        4.6493040       57.31497940    0.00000000
                                      D - F
                                                     0      104.4839977        3.00545910    0.00000000
                                                     1       66.2307245       26.36378510    0.00000000
                                                     2       39.1283176      183.38491990    0.00000000
                                                     2       13.1164437       98.44530680    0.00000000
                                                     2        3.6280263       22.49013770    0.00000000
   14         16
                                   No pseudopotential on this center.
   15         16
                                   No pseudopotential on this center.
   16         16
                                   No pseudopotential on this center.
   17         16
                                   No pseudopotential on this center.
   18         42           14
                                      F and up 
                                                     0      537.9667807       -0.04694920    0.00000000
                                                     1      147.8982938      -20.20800840    0.00000000
                                                     2       45.7358898     -106.21163020    0.00000000
                                                     2       13.2911467      -41.81073680    0.00000000
                                                     2        4.7059961       -4.20541030    0.00000000
                                      S - F
                                                     0      110.2991760        2.80637170    0.00000000
                                                     1       23.2014645       44.51620120    0.00000000
                                                     2        5.3530131       82.77852270    0.00000000
                                      P - F
                                                     0       63.2901397        4.94208760    0.00000000
                                                     1       23.3315302       25.86049760    0.00000000
                                                     2       24.6759423      132.47087420    0.00000000
                                                     2        4.6493040       57.31497940    0.00000000
                                      D - F
                                                     0      104.4839977        3.00545910    0.00000000
                                                     1       66.2307245       26.36378510    0.00000000
                                                     2       39.1283176      183.38491990    0.00000000
                                                     2       13.1164437       98.44530680    0.00000000
                                                     2        3.6280263       22.49013770    0.00000000
   19         16
                                   No pseudopotential on this center.
   20         16
                                   No pseudopotential on this center.
   21         42           14
                                      F and up 
                                                     0      537.9667807       -0.04694920    0.00000000
                                                     1      147.8982938      -20.20800840    0.00000000
[...]
 3,-0.00091328,0.00028505,0.00108836,-0.02001877,-0.01726263,0.00202981
 ,0.01056392,0.03131095,-0.00943496,-0.00028365,0.00029159,-0.00014756,
 -0.00091331,-0.00273779,0.00058795,-0.05380409,-0.01607094,-0.04237371
 ,0.00029522,-0.00005942,-0.00006945,0.00092337,0.00105977,-0.00043213,
 0.00033959,-0.00103492,-0.00017520,0.00023531,0.00014100,-0.00003013,0
 .00084400,-0.00010051,0.00069453,0.00198996,0.00125125,0.00005848,-0.0
 0018198,0.00005462,0.00004226,-0.00071246,0.00015783,-0.00000956,-0.00
 457024,-0.00155325,-0.01235313,0.00011316,0.00001769,0.00188273,-0.114
 19000,0.07717608,0.03716075,0.25045054,0.00176714,-0.00746624,-0.00232
 914,0.00283562,0.00013247,-0.00129899,-0.00140319,0.00060028,0.0000329
 9,-0.00466376,-0.00252601,0.00194936,-0.00384892,0.00038519,0.00081389
 ,-0.00720461,0.00220853,0.00147233,-0.00019363,0.00004856,-0.00042731,
 -0.00084012,-0.00429968,0.00133225,0.01405289,0.01991587,-0.01132639,-
 0.00183297,0.00011684,-0.00050725,-0.03068389,-0.09261159,-0.00171965,
 0.01366390,-0.00371810,0.03045741,0.00047566,-0.00044742,-0.00223708,-
 0.00175615,-0.00001072,0.00027065,-0.01226518,-0.01439139,-0.01658316,
 0.00000756,0.00002702,0.00021537,-0.00066331,0.00038662,-0.00058387,0.
 00095604,-0.00104586,-0.00060891,0.00016750,0.00017280,-0.00004615,0.0
 0099180,-0.00052450,0.00136850,0.00247273,0.00084868,-0.00205635,-0.00
 055891,0.00000322,0.00005277,0.00040568,-0.00034517,-0.00033406,0.0019
 8669,0.00153276,0.00618589,-0.00026007,-0.00019349,-0.00067793,0.07064
 915,-0.07725767,-0.02920199,-0.03630814,0.21346356,-0.00311406,0.00159
 288,0.00423912,0.00158801,0.00216893,-0.00372222,-0.00003397,0.0000520
 8,0.00007689,-0.00090797,0.00059435,0.00096574,0.00323757,-0.00291914,
 0.00101906,0.00022738,-0.00414369,-0.00242644,-0.00040171,-0.00032642,
 -0.00013741,0.00443479,0.00154418,0.00259027,0.01425635,0.00593882,0.0
 0421695,-0.00313294,0.00006441,-0.00068543,0.00085740,-0.01169518,-0.0
 0398333,0.01109975,0.03506808,-0.05132951,-0.00176667,-0.00275702,-0.0
 0116486,-0.00285625,-0.00322217,0.00286225,-0.04892053,-0.02169559,-0.
 05915345,0.00052906,0.00041138,0.00009852,-0.00010732,0.00043915,-0.00
 063893,0.00038853,-0.00094610,-0.00042295,0.00027513,0.00021753,0.0000
 4825,-0.00013384,0.00102607,-0.00012516,0.00009448,-0.00201940,0.00246
 221,-0.00009347,0.00014727,-0.00009876,-0.00075352,0.00021660,-0.00017
 743,-0.00231346,-0.00059647,0.00586293,0.00017671,-0.00042390,-0.00035
 253,0.03620200,-0.03522807,-0.03137905,-0.01576905,0.02608363,0.168065
 58,-0.00065163,0.00078884,0.00083057,-0.00012303,-0.00011782,-0.000029
 91,0.00024532,-0.00018224,0.00012971,-0.00017815,-0.00015145,-0.000356
 44,0.00045132,0.00018663,0.00018926,0.00002135,-0.00004734,0.00041980,
 -0.00050116,-0.00018067,-0.00000183,0.00002787,-0.00069531,0.00021283,
 0.00272273,0.00108561,0.00044989,-0.01024062,-0.00149250,0.00349452,0.
 00145226,0.00063150,0.00113942,-0.00115481,-0.00024536,-0.00084916,0.0
 0125936,0.00230428,-0.00064543,-0.00004321,-0.00016250,0.00026975,0.00
 093526,-0.00016222,0.00052030,-0.00089449,-0.00047536,0.00009648,-0.00
 623939,0.00360093,0.00817571,-0.00012407,0.00053722,-0.00056784,0.0000
 3472,0.00005562,0.00005804,0.00017449,-0.00006916,0.00008493,-0.000116
 40,-0.00032080,0.00030049,-0.00004586,0.00008479,-0.00004220,-0.000072
 56,0.00004770,-0.00003992,-0.01012670,0.00241752,-0.01103862,-0.003451
 48,0.00167415,-0.00127291,0.00072148,-0.00048906,0.00417758,-0.0097832
 4,0.00027133,-0.00761453,0.06877751,0.00009796,0.00002164,0.00010008,-
 0.00025623,-0.00000332,-0.00022604,-0.00008518,-0.00004154,-0.00024151
 ,-0.00003796,-0.00018540,-0.00057040,0.00023763,0.00027015,0.00035734,
 -0.00033444,0.00055366,0.00061240,-0.00006376,-0.00012935,-0.00038124,
 0.00006476,0.00025151,0.00005753,0.00043515,-0.00033336,0.00192981,-0.
 00617526,0.00153928,0.00230434,0.00081867,-0.00227239,0.00867119,-0.00
 194770,-0.00044866,-0.00077015,-0.00038672,-0.00254954,0.00054780,-0.0
 0005176,0.00010225,0.00004452,0.00328248,0.00081138,-0.00029735,-0.000
 27224,-0.00006302,-0.00029842,0.00153403,0.00169873,0.00095592,0.00002
 006,0.00010899,0.00017157,0.00001480,0.00003605,-0.00001205,0.00007894
 ,-0.00009377,0.00002967,0.00009670,-0.00039476,0.00005291,-0.00004559,
 0.00005367,-0.00002515,-0.00000565,0.00005565,-0.00003794,0.01764246,-
 0.02287508,-0.00205051,0.00084134,0.00110773,0.00059768,0.00028162,0.0
 0030276,-0.00400046,-0.00956321,-0.01446613,-0.01300834,0.03574835,0.1
 8537071,-0.00052545,0.00039622,0.00005510,-0.00011274,0.00020759,0.000
 32866,0.00024864,0.00004270,0.00022277,-0.00015416,0.00021106,-0.00002
 536,0.00010152,0.00064387,0.00008441,0.00086599,-0.00087172,-0.0005609
 2,0.00026332,0.00016230,0.00033018,-0.00015391,-0.00007380,-0.00039827
 ,0.00045481,-0.00138902,-0.00103116,0.00470787,0.00114177,-0.00281346,
 -0.00077356,0.00486134,-0.00729574,-0.00176606,-0.00211203,-0.00020259
 ,-0.00112741,0.00140483,0.00031079,0.00004690,0.00020823,-0.00048763,-
 0.00688747,0.00370215,-0.00603932,-0.00003326,-0.00004998,0.00020295,0
 .00030181,-0.00043770,0.00148866,0.00003394,0.00019943,-0.00057145,-0.
 00005920,-0.00002127,-0.00000847,-0.00011433,0.00002188,0.00005454,-0.
 00053346,-0.00031283,0.00030604,-0.00000580,-0.00000050,-0.00002860,0.
 00022747,-0.00000782,0.00001808,-0.00319786,-0.00110280,-0.00801467,-0
 .00331125,0.00141939,-0.00044642,0.00230269,-0.00214078,-0.00449817,0.
 00979837,-0.00811875,-0.01796109,0.00188521,0.00322686,0.06000227,-0.0
 0012190,0.00003573,-0.00009588,0.00010951,-0.00003521,-0.00008347,-0.0
 0000334,0.00007300,0.00017563,-0.00012825,-0.00038948,-0.00006033,-0.0
 0014844,0.00012667,0.00003829,-0.00063251,0.00043270,0.00056383,0.0000
 6746,0.00004151,-0.00011301,-0.00055405,-0.00026649,0.00010661,0.00449
 933,0.00264784,-0.00168143,0.00013870,0.00012459,-0.00040947,0.0002484
 1,-0.00273568,0.00127720,-0.00063784,-0.00323727,0.00099241,-0.0000169
 7,-0.00013630,0.00012130,0.00028213,0.00027018,-0.00010931,0.00218655,
 0.00277912,-0.00184636,-0.00008589,-0.00002740,0.00006942,-0.00012240,
 -0.00020127,-0.00041713,0.00010880,0.00009103,-0.00021057,-0.00004113,
 -0.00000210,-0.00002382,0.00016343,-0.00013931,0.00013553,-0.00001598,
 0.00006268,-0.00026637,0.00003340,-0.00004284,0.00003315,-0.00000058,-
 0.00001946,0.00000313,-0.00042123,0.00169691,0.00023730,-0.00002704,-0
 .00021016,-0.00017991,-0.00765555,-0.00266624,0.00315640,-0.03190704,-
 0.02286031,0.00843140,-0.00198537,-0.00481591,-0.00166184,0.10496389,0
 .00008742,0.00012076,-0.00076161,0.00026704,0.00030981,-0.00036784,-0.
 00012237,0.00002704,-0.00004919,0.00052286,-0.00066980,-0.00044079,0.0
 0001502,-0.00034468,0.00035735,0.00050146,0.00010045,-0.00004121,0.000
 08125,0.00006031,-0.00015084,0.00031711,0.00085233,-0.00006768,-0.0057
 3715,-0.00146558,0.00326661,-0.00008851,-0.00005631,-0.00006049,0.0010
 2933,-0.00236025,-0.00048251,-0.00063205,-0.00039504,-0.00032809,0.000
 64019,-0.00021978,0.00078016,0.00003645,0.00024579,0.00026382,0.000509
 77,-0.00234797,0.00551571,-0.00007694,0.00000786,-0.00018201,-0.000497
 44,-0.00039556,0.00042649,-0.00007577,-0.00005093,0.00061800,-0.000091
 58,-0.00006969,-0.00001460,-0.00007727,0.00004667,-0.00019070,0.000047
 37,-0.00001986,-0.00039032,0.00006548,-0.00011190,0.00007160,-0.000044
 77,0.00004916,0.00004069,0.00280178,-0.00001204,-0.00078894,0.00007299
 ,0.00026465,-0.00013583,-0.00246099,0.00241097,-0.00017335,-0.01488887
 ,-0.02641093,0.00759051,-0.00797844,0.00091099,-0.00877072,0.04414131,
 0.05082731,-0.00030635,0.00051758,0.00087153,-0.00001907,-0.00063390,0
 .00044903,0.00018368,-0.00007069,0.00021638,-0.00035837,0.00158056,-0.
 00017781,0.00006276,0.00044529,-0.00055511,-0.00163990,0.00054594,0.00
 109838,0.00006652,0.00002973,-0.00009198,-0.00119303,-0.00080652,0.000
 03440,0.00736586,-0.00043665,-0.00443368,0.00076704,0.00030974,-0.0000
 2671,-0.00117423,0.00786731,0.00068159,-0.00102724,-0.00126889,0.00374
 009,-0.00105241,0.00020292,0.00006892,0.00009925,0.00026180,-0.0004353
 9,0.00304048,0.00754555,-0.01001153,-0.00005693,-0.00002950,0.00023781
 ,0.00029568,0.00018408,-0.00054259,0.00031652,0.00023489,-0.00100099,0
 .00003992,0.00006939,-0.00002240,0.00044227,-0.00016823,0.00040047,0.0
 0008429,0.00032201,-0.00008398,0.00002979,0.00004710,-0.00004853,-0.00
 005877,0.00000770,-0.00006047,-0.00222114,0.00076223,-0.00074050,-0.00
 000743,-0.00020140,0.00011691,0.00354816,0.00243024,-0.00041155,-0.005
 46849,-0.01513407,-0.00524533,-0.00173170,-0.00815841,0.00204373,0.062
 92459,0.01084531,0.11368465,0.00081226,-0.00082911,-0.00171667,0.00045
 579,0.00048222,-0.00034650,-0.00060191,0.00009469,-0.00060160,0.000371
 40,-0.00128959,0.00005104,-0.00036278,-0.00025834,0.00038560,0.0000783
 2,0.00062528,0.00007051,-0.00036893,-0.00014342,-0.00036299,0.00099430
 ,0.00093741,0.00018603,-0.00854072,0.00100279,0.00237616,-0.00273439,0
 .00081500,0.00074991,0.00110005,-0.00321951,-0.00165931,0.00050614,-0.
 00033097,0.00029773,0.00407774,-0.00023229,-0.00148783,-0.00008142,0.0
 0043644,-0.00006663,-0.00290154,-0.00071472,-0.00108776,-0.00036347,-0
 .00017246,-0.00040675,-0.00131361,0.00152225,0.00385178,-0.00102879,-0
 .00078934,0.00152932,0.00038663,0.00012409,0.00013209,-0.00017809,0.00
 012923,-0.00037458,0.00073078,-0.00032561,-0.00065393,-0.00014874,0.00
 022972,-0.00010804,-0.00021569,0.00006573,0.00002708,-0.01693729,-0.02
 477882,0.00215620,0.00127656,0.00179068,0.00088423,-0.00394112,0.00002
 804,0.00163970,0.01912560,0.02067037,0.00050600,-0.03626736,-0.0401783
 8,-0.00116403,-0.07130698,-0.02327215,-0.05262268,0.29818763,-0.000322
 21,0.00034529,0.00047477,-0.00020665,0.00040981,0.00029033,0.00026095,
 -0.00011268,0.00015497,0.00002598,0.00010076,0.00036089,0.00025477,0.0
 0000843,0.00023804,0.00175561,-0.00112526,-0.00113983,-0.00019701,0.00
 001928,0.00035037,0.00065723,0.00005203,-0.00008028,-0.00180681,-0.002
 46672,0.00113142,0.00084030,-0.00264060,0.00344685,-0.00026207,-0.0018
 4247,0.00153613,-0.00013579,-0.00020843,-0.00317875,0.00048911,-0.0000
 6633,-0.00117083,-0.00003463,-0.00021945,0.00003904,-0.00290835,-0.000
 21634,0.00118026,0.00013852,0.00001348,0.00031144,0.00030390,-0.003623
 82,-0.00263431,-0.00024190,-0.00000698,-0.00030269,0.00009262,0.000023
 55,0.00004615,-0.00028005,0.00012296,-0.00013538,-0.00057827,-0.000513
 89,0.00078994,-0.00009394,0.00014973,-0.00008481,0.00024282,-0.0000702
 9,0.00000909,-0.01637801,0.02904175,0.00155938,0.00036975,-0.00184012,
 -0.00116562,0.00311810,-0.00119658,-0.00076817,0.01278659,0.00449780,0
 .01543455,-0.04240780,-0.14674682,0.00150784,-0.02069548,-0.02516726,-
 0.01477052,0.02740270,0.27108957,0.00102178,-0.00089189,-0.00165450,0.
 00066644,0.00017084,-0.00027147,-0.00050860,0.00012969,-0.00014629,0.0
 0033363,-0.00072121,0.00040633,-0.00077370,-0.00024968,-0.00010636,0.0
 0010177,0.00009512,-0.00084669,-0.00004482,-0.00004286,-0.00006640,0.0
 0084404,0.00040941,0.00004173,-0.00768408,0.00035821,0.00065645,-0.000
 40724,-0.00089530,0.00069921,-0.00030611,-0.00110855,-0.00285609,0.001
 21509,-0.00030237,0.00290025,0.00235353,0.00004280,-0.00028666,0.00013
 875,0.00035052,-0.00006424,-0.00218619,0.00076407,-0.00199506,-0.00011
 134,-0.00006138,-0.00016748,-0.00050116,0.00090450,0.00069580,0.000160
 17,-0.00003224,0.00122914,-0.00046310,-0.00029389,-0.00007869,-0.00033
 940,0.00015839,-0.00030075,0.00034034,0.00111699,-0.00124159,0.0003024
 8,-0.00054656,0.00030880,-0.00009787,-0.00004408,0.00010309,0.00792418
 ,0.00116189,-0.00068135,-0.00223302,-0.00093100,-0.00140655,0.00137262
 ,0.00049500,-0.00329548,0.01449363,0.02259395,-0.00878847,-0.00109267,
 0.00391471,-0.01821825,-0.06914478,-0.02271343,-0.09576131,-0.06592243
 ,-0.04030608,0.35491715,0.00010637,-0.00009814,-0.00009877,0.00002650,
 -0.00003666,-0.00004782,-0.00003982,-0.00001388,0.00005489,-0.00004660
 ,-0.00001553,0.00008738,-0.00005317,-0.00002281,-0.00003422,-0.0000432
 2,-0.00007718,-0.00019855,-0.00001081,0.00003031,-0.00003273,0.0001521
 7,-0.00002402,-0.00006520,-0.00057049,-0.00012714,0.00008608,-0.000078
 91,0.00004102,-0.00000524,-0.00014709,0.00042991,-0.00021949,0.0000515
 2,0.00021792,0.00026535,0.00004055,-0.00015380,0.00018191,0.00002782,0
 .00002791,0.00000971,0.00028308,0.00021673,-0.00034443,-0.00009059,-0.
 00000498,0.00003715,-0.00015696,-0.00022327,-0.00017480,0.00027071,0.0
 0019278,0.00010347,-0.00024496,-0.00012179,-0.00005803,-0.00005311,0.0
 0001726,-0.00000483,-0.00007636,0.00036132,-0.00023618,0.00013685,-0.0
 0023228,0.00013082,0.00000838,-0.00001585,0.00002793,0.00239871,0.0024
 3709,0.00064790,-0.00029958,-0.00037063,-0.00063963,0.00064910,-0.0002
 3625,-0.00041057,-0.00001106,-0.00276375,0.00266452,-0.00103333,-0.003
 33273,0.00140504,0.00920064,0.00230409,-0.00032257,-0.08971352,-0.0231
 6808,0.11006850,0.08596488,0.00004661,-0.00003554,-0.00004597,0.000023
 63,0.00002632,-0.00004099,-0.00002885,-0.00000610,0.00000099,0.0000420
 7,-0.00005206,0.00001482,-0.00001732,-0.00001093,0.00001378,0.00001160
 ,0.00003448,-0.00000441,0.00002222,-0.00002551,-0.00002971,0.00002729,
 0.00001292,-0.00002493,-0.00022030,0.00010789,0.00015193,-0.00012180,-
 0.00000026,-0.00018932,0.00015950,-0.00000265,-0.00004050,-0.00002238,
 -0.00002534,0.00013155,0.00000270,0.00008247,0.00005664,0.00001607,0.0
 0001968,0.00000384,0.00007899,0.00002961,-0.00006328,-0.00003077,-0.00
 002510,-0.00002850,-0.00008094,0.00012645,0.00021069,0.00008669,0.0001
 0237,0.00005451,-0.00007111,-0.00003281,-0.00001924,-0.00001112,-0.000
 01056,-0.00000161,-0.00001807,0.00007992,-0.00006464,0.00003666,-0.000
 05994,0.00003595,-0.00000154,-0.00000215,0.00000697,0.00116303,-0.0007
 5319,-0.00057624,-0.00023527,0.00000673,0.00001578,-0.00015963,0.00013
 565,-0.00028944,-0.00051800,0.00107472,-0.00103706,-0.00209714,0.00297
 045,0.00585273,0.00444675,0.00038791,0.00117162,-0.02509359,-0.0321937
 1,0.04357123,0.02443673,0.02224022,-0.00020489,0.00013045,0.00019359,-
 0.00004240,-0.00004211,0.00005402,0.00004637,0.00001333,-0.00013524,0.
 00002440,0.00002752,-0.00010441,0.00011659,0.00003368,0.00002833,0.000
 03916,0.00010506,0.00037480,-0.00010947,-0.00000322,-0.00001179,-0.000
 11364,0.00000290,0.00011597,0.00066114,0.00029153,-0.00012556,-0.00042
 036,-0.00016049,0.00034937,0.00000391,0.00011752,0.00047751,0.00000512
 ,-0.00013241,-0.00021888,0.00011557,0.00007229,-0.00022382,-0.00006353
 ,-0.00000719,-0.00009572,-0.00021732,-0.00023806,0.00038820,0.00006687
 ,-0.00003038,-0.00000087,-0.00048976,-0.00034681,0.00039844,-0.0005419
 2,-0.00035010,-0.00007979,0.00043545,0.00021062,0.00010500,0.00008520,
 -0.00002022,-0.00001539,0.00014328,-0.00058890,0.00036344,-0.00022820,
 0.00039639,-0.00022396,-0.00001843,0.00002842,-0.00005172,0.00149296,0
 .00024833,-0.00167002,0.00060751,0.00046687,0.00144960,-0.00069753,-0.
 00024796,0.00071885,-0.00039710,-0.00021698,-0.00257480,0.00171452,0.0
 0735902,0.00165102,-0.00174445,0.00164303,-0.00934588,0.10999746,0.040
 26611,-0.20350560,-0.11772711,-0.04322746,0.21011196,-0.00018186,0.000
 20832,0.00019272,0.00031924,0.00006118,0.00026850,0.00019197,-0.000062
 58,0.00017801,-0.00015037,0.00047108,0.00001767,0.00003035,0.00002591,
 0.00005700,-0.00022559,-0.00025060,0.00053553,-0.00053602,0.00002231,-
 0.00006164,-0.00009705,-0.00006643,-0.00040059,-0.00021667,-0.00210816
 ,-0.00087562,-0.00001205,-0.00510590,0.00796935,0.00009941,0.00051985,
 0.00041719,-0.00004538,0.00038435,-0.00026128,0.00337386,0.00081181,-0
 .00120639,0.00005511,-0.00010911,-0.00004266,0.00065437,0.00014353,0.0
 0062403,-0.00066712,-0.00036748,0.00054400,-0.01073408,-0.00682019,0.0
 0430656,-0.00034725,-0.00000524,-0.00029799,0.00004514,0.00001768,0.00
 005850,0.00007422,-0.00002717,0.00013488,-0.00018681,-0.00006636,0.000
 27290,-0.00000238,0.00000516,-0.00000239,0.00015417,-0.00001922,-0.000
 00417,-0.00735270,0.00795355,-0.01288390,-0.00205373,-0.00506481,-0.00
 275010,0.00241340,-0.00088702,-0.00010071,-0.00498241,-0.00326715,0.00
 295020,0.00620923,0.00635777,-0.00106183,-0.00618976,0.00260338,-0.010
 00648,-0.09109683,0.06097810,0.01047954,-0.00664768,-0.00187269,0.0074
 6061,0.11810530,-0.00001606,-0.00004811,-0.00015077,0.00019417,-0.0001
 2543,0.00000579,0.00009680,0.00007129,0.00008832,-0.00002048,-0.000173
 81,-0.00000144,-0.00000707,-0.00001298,0.00004122,-0.00004509,0.000004
 19,-0.00015190,0.00013090,0.00005240,0.00020733,-0.00023543,0.00004479
 ,0.00008339,-0.00055195,0.00019405,0.00003966,-0.00119944,-0.00229036,
 0.00221310,0.00006933,-0.00017289,-0.00026578,-0.00000470,0.00010953,0
 .00015083,0.00023255,-0.00193893,0.00114913,0.00001989,-0.00001556,0.0
 0001386,-0.00006503,0.00036927,-0.00032174,0.00038911,0.00006666,-0.00
 009660,-0.00093233,0.00192392,-0.00089038,0.00017878,-0.00025045,-0.00
 003949,-0.00004344,-0.00000358,-0.00000529,-0.00000401,-0.00000110,0.0
 0004860,0.00002522,0.00006721,-0.00006186,0.00003668,-0.00005443,0.000
 03504,-0.00000510,0.00001109,0.00002205,-0.01587444,-0.04660803,-0.000
 19855,-0.00404247,-0.00217822,-0.00438102,-0.00006193,-0.00240890,0.00
 361359,0.00125048,0.00029998,0.00142815,0.00784072,-0.00556246,0.00019
 955,0.00151088,0.00347557,0.00629778,0.06527164,-0.08561667,-0.0070967
 9,0.00032567,0.00579808,-0.00580075,-0.05446386,0.13497388,-0.00029610
 ,0.00024512,0.00020593,-0.00023431,-0.00015270,0.00002522,0.00013051,0
 .00004204,0.00015070,-0.00033960,-0.00027353,-0.00010253,0.00012993,-0
 .00002528,-0.00005153,-0.00011362,-0.00010207,-0.00019878,0.00002036,0
 .00001861,0.00041546,-0.00041168,-0.00005335,0.00015106,0.00184980,0.0
 0165788,-0.00060757,-0.00021860,0.00099691,0.00089098,0.00003587,0.000
 09123,0.00021624,-0.00016050,-0.00006962,0.00010032,-0.00120819,-0.002
 12760,0.00139881,-0.00001624,-0.00004608,0.00002999,-0.00044436,-0.000
 31627,-0.00035446,0.00044965,0.00028133,-0.00012905,0.00519974,0.00146
 122,-0.00241597,0.00025197,-0.00029327,-0.00039600,-0.00000260,0.00002
 473,-0.00000577,0.00010186,-0.00000827,0.00010225,0.00004571,0.0000243
 1,-0.00000018,0.00000284,0.00000660,-0.00000313,-0.00004778,0.00000405
 ,-0.00001034,-0.00427911,0.00144795,-0.00899872,-0.00208883,-0.0042156
 6,0.00121748,-0.00275920,0.00214233,-0.00266068,0.00140739,0.00057906,
 -0.00214064,0.00113417,-0.00085540,0.00150237,-0.00021807,0.00469088,0
 .00535184,0.00374088,-0.00339034,-0.02021867,0.00484952,-0.00560975,0.
 00160333,-0.00651143,0.00382496,0.02493204\\0.00007999,-0.00002855,0.0
 0000477,0.00000978,0.00001585,-0.00000796,-0.00004947,0.00000802,-0.00
 002125,0.00000218,0.00000104,-0.00000745,-0.00000267,0.00000705,-0.000
 00279,0.00005501,-0.00001176,0.00009746,0.00000323,0.00000830,-0.00000
 593,0.00000128,0.00001172,-0.00000571,-0.00008470,0.00001099,-0.000056
 73,-0.00000949,0.00000695,-0.00002440,0.00003080,-0.00002516,-0.000006
 00,-0.00003269,0.00001255,0.00006534,-0.00004853,-0.00004202,-0.000028
 29,0.00000631,0.00000280,-0.00000906,-0.00000156,0.00000674,-0.0000136
 6,0.00003457,0.00000846,-0.00000789,0.00001611,0.00002177,0.00002042,-
 0.00001006,-0.00002334,0.00003475,0.00000287,0.00000574,-0.00001843,-0
 .00000711,0.00002363,-0.00001765,0.00002324,-0.00000698,-0.00001455,-0
 .00000643,-0.00000010,0.00000676,-0.00001678,-0.00000195,-0.00001592,0
 .00005016,-0.00008103,0.00000289,-0.00000567,0.00001872,0.00000495,0.0
 0001533,0.00004717,0.00005527,-0.00004254,-0.00004025,-0.00000879,0.,0
 .00002953,0.00002779,0.00000226,-0.00002063,0.00000661,-0.00003339,0.0
 0002822,-0.00006847,0.00002715,0.00000652,0.00002223,-0.00000917,0.,-0
 .00000832\\\@
 The archive entry for this job was punched.


 IT IS A QUALITY OF REVOLUTIONS NOT TO GO BY OLD LINES OR OLD LAWS,
 BUT TO BREAK UP BOTH, AND MAKE NEW ONES.
                                              -- A. LINCOLN (1848)
 Job cpu time:       0 days 12 hours 46 minutes 29.8 seconds.
 Elapsed time:       0 days  0 hours 16 minutes  1.4 seconds.
 File lengths (MBytes):  RWF=   1942 Int=      0 D2E=      0 Chk=     36 Scr=      2
 Normal termination of Gaussian 16 at Wed Dec 14 09:41:44 2022.
