 Entering Gaussian System, Link 0=/apps/GAU16/avx2/g16/g16
 Initial command:
 /apps/GAU16/avx2/g16/l1.exe "/localscratch/chesha/scratch/Gau-195166.inp" -scrdir="/localscratch/chesha/scratch/"
 Entering Link 1 = /apps/GAU16/avx2/g16/l1.exe PID=    195167.
  
 Copyright (c) 1988-2019, Gaussian, Inc.  All Rights Reserved.
  
 This is part of the Gaussian(R) 16 program.  It is based on
 the Gaussian(R) 09 system (copyright 2009, Gaussian, Inc.),
 the Gaussian(R) 03 system (copyright 2003, Gaussian, Inc.),
 the Gaussian(R) 98 system (copyright 1998, Gaussian, Inc.),
 the Gaussian(R) 94 system (copyright 1995, Gaussian, Inc.),
 the Gaussian 92(TM) system (copyright 1992, Gaussian, Inc.),
 the Gaussian 90(TM) system (copyright 1990, Gaussian, Inc.),
 the Gaussian 88(TM) system (copyright 1988, Gaussian, Inc.),
 the Gaussian 86(TM) system (copyright 1986, Carnegie Mellon
 University), and the Gaussian 82(TM) system (copyright 1983,
 Carnegie Mellon University). Gaussian is a federally registered
 trademark of Gaussian, Inc.
  
 This software contains proprietary and confidential information,
 including trade secrets, belonging to Gaussian, Inc.
  
 This software is provided under written license and may be
 used, copied, transmitted, or stored only in accord with that
 written license.
  
 The following legend is applicable only to US Government
 contracts under FAR:
  
                    RESTRICTED RIGHTS LEGEND
  
 Use, reproduction and disclosure by the US Government is
 subject to restrictions as set forth in subparagraphs (a)
 and (c) of the Commercial Computer Software - Restricted
 Rights clause in FAR 52.227-19.
  
 Gaussian, Inc.
 340 Quinnipiac St., Bldg. 40, Wallingford CT 06492
  
  
 ---------------------------------------------------------------
 Warning -- This program may not be used in any manner that
 competes with the business of Gaussian, Inc. or will provide
 assistance to any competitor of Gaussian, Inc.  The licensee
 of this program is prohibited from giving any competitor of
 Gaussian, Inc. access to this program.  By using this program,
 the user acknowledges that Gaussian, Inc. is engaged in the
 business of creating and licensing software in the field of
 computational chemistry and represents and warrants to the
 licensee that it is not a competitor of Gaussian, Inc. and that
 it will not use this program in any manner prohibited above.
 ---------------------------------------------------------------
  

 Cite this work as:
 Gaussian 16, Revision C.01,
 M. J. Frisch, G. W. Trucks, H. B. Schlegel, G. E. Scuseria, 
 M. A. Robb, J. R. Cheeseman, G. Scalmani, V. Barone, 
 G. A. Petersson, H. Nakatsuji, X. Li, M. Caricato, A. V. Marenich, 
 J. Bloino, B. G. Janesko, R. Gomperts, B. Mennucci, H. P. Hratchian, 
 J. V. Ortiz, A. F. Izmaylov, J. L. Sonnenberg, D. Williams-Young, 
 F. Ding, F. Lipparini, F. Egidi, J. Goings, B. Peng, A. Petrone, 
 T. Henderson, D. Ranasinghe, V. G. Zakrzewski, J. Gao, N. Rega, 
 G. Zheng, W. Liang, M. Hada, M. Ehara, K. Toyota, R. Fukuda, 
 J. Hasegawa, M. Ishida, T. Nakajima, Y. Honda, O. Kitao, H. Nakai, 
 T. Vreven, K. Throssell, J. A. Montgomery, Jr., J. E. Peralta, 
 F. Ogliaro, M. J. Bearpark, J. J. Heyd, E. N. Brothers, K. N. Kudin, 
 V. N. Staroverov, T. A. Keith, R. Kobayashi, J. Normand, 
 K. Raghavachari, A. P. Rendell, J. C. Burant, S. S. Iyengar, 
 J. Tomasi, M. Cossi, J. M. Millam, M. Klene, C. Adamo, R. Cammi, 
 J. W. Ochterski, R. L. Martin, K. Morokuma, O. Farkas, 
 J. B. Foresman, and D. J. Fox, Gaussian, Inc., Wallingford CT, 2019.
 
 ******************************************
 Gaussian 16:  ES64L-G16RevC.01  3-Jul-2019
                 1-Nov-2022 
 ******************************************
 %nprocshared=48
 Will use up to   48 processors via shared memory.
 %mem=80GB
 ---------------------------------------
 # opt freq b3lyp/gen nosymm pseudo=read
 ---------------------------------------
 1/18=20,19=15,26=3,38=1/1,3;
 2/9=110,12=2,15=1,17=6,18=5,40=1/2;
 3/5=7,11=2,16=1,17=8,25=1,30=1,71=1,74=-5/1,2,3;
 4//1;
 5/5=2,38=5/2;
 6/7=2,8=2,9=2,10=2,28=1/1;
 7/30=1/1,2,3,16;
 1/18=20,19=15,26=3/3(2);
 2/9=110,15=1/2;
 99//99;
 2/9=110,15=1/2;
 3/5=7,6=1,11=2,16=1,17=8,25=1,30=1,71=1,74=-5,82=7/1,2,3;
 4/5=5,16=3,69=1/1;
 5/5=2,38=5/2;
 7/30=1/1,2,3,16;
 1/18=20,19=15,26=3/3(-5);
 2/9=110,15=1/2;
 6/7=2,8=2,9=2,10=2,19=2,28=1/1;
 99/9=1/99;
 -------------------
 Title Card Required
 -------------------
 Symbolic Z-matrix:
 Charge =  0 Multiplicity = 1
 42                   -0.08427   1.06264   11.48269 
 16                    1.35705   2.90122   11.93804 
 16                   -1.66477   1.55015   13.1836 
 16                   -1.21424   1.52156   9.47135 
 16                    1.14002  -0.72656   10.8377 
 42                   -2.34798   2.6243    11.26792 
 16                   -4.43956   2.13055   10.37239 
 1                    -4.27094   1.19787   9.41187 
 16                   -1.53146   4.76961   11.31187 
 42                   -0.02804   3.47514   10.10779 
 16                    0.57729   5.23901   8.64713 
 1                    -0.38302   6.14725   8.92264 
 16                    1.95203   2.37259   8.60651 
 42                    2.48159   1.23625   10.41503 
 16                    4.4547    1.99981   11.54779 
 1                     4.03144   3.10682   12.19159 
 16                    4.13324  -0.25581   9.56637 
 1                     3.44328  -1.40401   9.38912 
 

 GradGradGradGradGradGradGradGradGradGradGradGradGradGradGradGradGradGrad
 Berny optimization.
 Initialization pass.
                           ----------------------------
                           !    Initial Parameters    !
                           ! (Angstroms and Degrees)  !
 --------------------------                            --------------------------
 ! Name  Definition              Value          Derivative Info.                !
 --------------------------------------------------------------------------------
 ! R1    R(1,2)                  2.3801         estimate D2E/DX2                !
 ! R2    R(1,3)                  2.3725         estimate D2E/DX2                !
 ! R3    R(1,4)                  2.3522         estimate D2E/DX2                !
 ! R4    R(1,5)                  2.2619         estimate D2E/DX2                !
 ! R5    R(1,6)                  2.7585         estimate D2E/DX2                !
 ! R6    R(1,10)                 2.7774         estimate D2E/DX2                !
 ! R7    R(1,14)                 2.7845         estimate D2E/DX2                !
 ! R8    R(2,10)                 2.3659         estimate D2E/DX2                !
 ! R9    R(2,14)                 2.5212         estimate D2E/DX2                !
 ! R10   R(3,6)                  2.3001         estimate D2E/DX2                !
 ! R11   R(4,6)                  2.3935         estimate D2E/DX2                !
 ! R12   R(4,10)                 2.3725         estimate D2E/DX2                !
 ! R13   R(5,14)                 2.4148         estimate D2E/DX2                !
 ! R14   R(6,7)                  2.3282         estimate D2E/DX2                !
 ! R15   R(6,9)                  2.2959         estimate D2E/DX2                !
 ! R16   R(6,10)                 2.7298         estimate D2E/DX2                !
 ! R17   R(7,8)                  1.3494         estimate D2E/DX2                !
 ! R18   R(9,10)                 2.3207         estimate D2E/DX2                !
 ! R19   R(10,11)                2.3688         estimate D2E/DX2                !
 ! R20   R(10,13)                2.7185         estimate D2E/DX2                !
 ! R21   R(11,12)                1.3502         estimate D2E/DX2                !
 ! R22   R(13,14)                2.2006         estimate D2E/DX2                !
 ! R23   R(14,15)                2.3999         estimate D2E/DX2                !
 ! R24   R(14,17)                2.3821         estimate D2E/DX2                !
 ! R25   R(15,16)                1.3487         estimate D2E/DX2                !
 ! R26   R(17,18)                1.3512         estimate D2E/DX2                !
 ! A1    A(2,1,3)               96.1724         estimate D2E/DX2                !
 ! A2    A(2,1,4)              107.6846         estimate D2E/DX2                !
 ! A3    A(2,1,5)              109.7443         estimate D2E/DX2                !
 ! A4    A(2,1,6)               94.2736         estimate D2E/DX2                !
 ! A5    A(3,1,4)              104.6503         estimate D2E/DX2                !
 ! A6    A(3,1,5)              136.6823         estimate D2E/DX2                !
 ! A7    A(3,1,10)             100.947          estimate D2E/DX2                !
 ! A8    A(3,1,14)             151.1558         estimate D2E/DX2                !
 ! A9    A(4,1,5)               99.8177         estimate D2E/DX2                !
 ! A10   A(4,1,14)              95.8908         estimate D2E/DX2                !
 ! A11   A(5,1,6)              150.4352         estimate D2E/DX2                !
 ! A12   A(5,1,10)             122.343          estimate D2E/DX2                !
 ! A13   A(6,1,14)             133.7119         estimate D2E/DX2                !
 ! A14   A(10,1,14)             74.774          estimate D2E/DX2                !
 ! A15   A(10,2,14)             87.3639         estimate D2E/DX2                !
 ! A16   A(1,6,7)              130.3249         estimate D2E/DX2                !
 ! A17   A(1,6,9)              103.6304         estimate D2E/DX2                !
 ! A18   A(3,6,4)              105.6224         estimate D2E/DX2                !
 ! A19   A(3,6,7)              119.2207         estimate D2E/DX2                !
 ! A20   A(3,6,9)              108.3484         estimate D2E/DX2                !
 ! A21   A(3,6,10)             104.3045         estimate D2E/DX2                !
 ! A22   A(4,6,7)               92.2413         estimate D2E/DX2                !
 ! A23   A(4,6,9)              106.0462         estimate D2E/DX2                !
 ! A24   A(7,6,9)              121.6704         estimate D2E/DX2                !
 ! A25   A(7,6,10)             131.7677         estimate D2E/DX2                !
 ! A26   A(6,7,8)              107.9458         estimate D2E/DX2                !
 ! A27   A(1,10,9)             102.3894         estimate D2E/DX2                !
 ! A28   A(1,10,11)            163.1837         estimate D2E/DX2                !
 ! A29   A(1,10,13)             86.3212         estimate D2E/DX2                !
 ! A30   A(2,10,4)             107.4865         estimate D2E/DX2                !
 ! A31   A(2,10,6)              95.3453         estimate D2E/DX2                !
 ! A32   A(2,10,9)              96.4998         estimate D2E/DX2                !
 ! A33   A(2,10,11)            120.5334         estimate D2E/DX2                !
 ! A34   A(2,10,13)             84.4001         estimate D2E/DX2                !
 ! A35   A(4,10,9)             105.9371         estimate D2E/DX2                !
 ! A36   A(4,10,11)            125.135          estimate D2E/DX2                !
 ! A37   A(4,10,13)             83.227          estimate D2E/DX2                !
 ! A38   A(6,10,11)            135.3421         estimate D2E/DX2                !
 ! A39   A(6,10,13)            136.6599         estimate D2E/DX2                !
 ! A40   A(9,10,11)             94.0215         estimate D2E/DX2                !
 ! A41   A(11,10,13)            77.0171         estimate D2E/DX2                !
 ! A42   A(10,11,12)           101.1463         estimate D2E/DX2                !
 ! A43   A(10,13,14)            86.0348         estimate D2E/DX2                !
 ! A44   A(1,14,13)             97.2135         estimate D2E/DX2                !
 ! A45   A(1,14,15)            126.6171         estimate D2E/DX2                !
 ! A46   A(1,14,17)            137.4301         estimate D2E/DX2                !
 ! A47   A(2,14,5)             100.5591         estimate D2E/DX2                !
 ! A48   A(2,14,13)             92.7576         estimate D2E/DX2                !
 ! A49   A(2,14,15)             82.6155         estimate D2E/DX2                !
 ! A50   A(2,14,17)            159.7396         estimate D2E/DX2                !
 ! A51   A(5,14,13)            115.4611         estimate D2E/DX2                !
 ! A52   A(5,14,15)            129.255          estimate D2E/DX2                !
 ! A53   A(5,14,17)             86.4705         estimate D2E/DX2                !
 ! A54   A(13,14,15)           114.9279         estimate D2E/DX2                !
 ! A55   A(13,14,17)           101.3912         estimate D2E/DX2                !
 ! A56   A(15,14,17)            78.3099         estimate D2E/DX2                !
 ! A57   A(14,15,16)           103.2047         estimate D2E/DX2                !
 ! A58   A(14,17,18)           102.9994         estimate D2E/DX2                !
 ! A59   L(9,10,13,1,-1)       188.7105         estimate D2E/DX2                !
 ! A60   L(9,10,13,1,-2)       185.0959         estimate D2E/DX2                !
 ! D1    D(2,1,6,7)            164.6642         estimate D2E/DX2                !
 ! D2    D(2,1,6,9)              8.5364         estimate D2E/DX2                !
 ! D3    D(5,1,6,7)             19.7476         estimate D2E/DX2                !
 ! D4    D(5,1,6,9)           -136.3802         estimate D2E/DX2                !
 ! D5    D(14,1,6,7)           116.5566         estimate D2E/DX2                !
 ! D6    D(14,1,6,9)           -39.5712         estimate D2E/DX2                !
 ! D7    D(3,1,10,9)             0.5324         estimate D2E/DX2                !
 ! D8    D(3,1,10,11)          167.7004         estimate D2E/DX2                !
 ! D9    D(3,1,10,13)          175.4365         estimate D2E/DX2                !
 ! D10   D(5,1,10,9)           178.9126         estimate D2E/DX2                !
 ! D11   D(5,1,10,11)          -13.9195         estimate D2E/DX2                !
 ! D12   D(5,1,10,13)           -6.1834         estimate D2E/DX2                !
 ! D13   D(14,1,10,9)         -150.1571         estimate D2E/DX2                !
 ! D14   D(14,1,10,11)          17.0108         estimate D2E/DX2                !
 ! D15   D(14,1,10,13)          24.7469         estimate D2E/DX2                !
 ! D16   D(3,1,14,13)         -116.3977         estimate D2E/DX2                !
 ! D17   D(3,1,14,15)           12.1643         estimate D2E/DX2                !
 ! D18   D(3,1,14,17)          128.0029         estimate D2E/DX2                !
 ! D19   D(4,1,14,13)           19.1947         estimate D2E/DX2                !
 ! D20   D(4,1,14,15)          147.7567         estimate D2E/DX2                !
 ! D21   D(4,1,14,17)          -96.4047         estimate D2E/DX2                !
 ! D22   D(6,1,14,13)          -26.7098         estimate D2E/DX2                !
 ! D23   D(6,1,14,15)          101.8521         estimate D2E/DX2                !
 ! D24   D(6,1,14,17)         -142.3093         estimate D2E/DX2                !
 ! D25   D(10,1,14,13)         -31.3448         estimate D2E/DX2                !
 ! D26   D(10,1,14,15)          97.2172         estimate D2E/DX2                !
 ! D27   D(10,1,14,17)        -146.9442         estimate D2E/DX2                !
 ! D28   D(14,2,10,4)           60.5108         estimate D2E/DX2                !
 ! D29   D(14,2,10,6)          115.8874         estimate D2E/DX2                !
 ! D30   D(14,2,10,9)          169.5153         estimate D2E/DX2                !
 ! D31   D(14,2,10,11)         -91.9072         estimate D2E/DX2                !
 ! D32   D(14,2,10,13)         -20.5647         estimate D2E/DX2                !
 ! D33   D(10,2,14,5)          -90.9199         estimate D2E/DX2                !
 ! D34   D(10,2,14,13)          25.6179         estimate D2E/DX2                !
 ! D35   D(10,2,14,15)         140.4054         estimate D2E/DX2                !
 ! D36   D(10,2,14,17)         160.1659         estimate D2E/DX2                !
 ! D37   D(1,4,6,10)            77.1618         estimate D2E/DX2                !
 ! D38   D(1,6,7,8)            -28.4335         estimate D2E/DX2                !
 ! D39   D(3,6,7,8)            -95.7046         estimate D2E/DX2                !
 ! D40   D(4,6,7,8)             13.6061         estimate D2E/DX2                !
 ! D41   D(9,6,7,8)            124.0427         estimate D2E/DX2                !
 ! D42   D(10,6,7,8)            55.8318         estimate D2E/DX2                !
 ! D43   D(3,6,10,2)            -8.3756         estimate D2E/DX2                !
 ! D44   D(3,6,10,11)         -153.5257         estimate D2E/DX2                !
 ! D45   D(3,6,10,13)           79.1227         estimate D2E/DX2                !
 ! D46   D(7,6,10,2)          -162.9551         estimate D2E/DX2                !
 ! D47   D(7,6,10,11)           51.8948         estimate D2E/DX2                !
 ! D48   D(7,6,10,13)          -75.4568         estimate D2E/DX2                !
 ! D49   D(1,10,11,12)        -179.9723         estimate D2E/DX2                !
 ! D50   D(2,10,11,12)        -112.5068         estimate D2E/DX2                !
 ! D51   D(4,10,11,12)         100.1776         estimate D2E/DX2                !
 ! D52   D(6,10,11,12)          26.1522         estimate D2E/DX2                !
 ! D53   D(9,10,11,12)         -12.532          estimate D2E/DX2                !
 ! D54   D(13,10,11,12)        172.1038         estimate D2E/DX2                !
 ! D55   D(1,10,13,14)         -30.8195         estimate D2E/DX2                !
 ! D56   D(2,10,13,14)          23.7647         estimate D2E/DX2                !
 ! D57   D(4,10,13,14)         -84.6377         estimate D2E/DX2                !
 ! D58   D(6,10,13,14)         -68.0969         estimate D2E/DX2                !
 ! D59   D(11,10,13,14)        146.8901         estimate D2E/DX2                !
 ! D60   D(10,13,14,1)          30.9325         estimate D2E/DX2                !
 ! D61   D(10,13,14,2)         -22.1356         estimate D2E/DX2                !
 ! D62   D(10,13,14,5)          80.9337         estimate D2E/DX2                !
 ! D63   D(10,13,14,15)       -105.2719         estimate D2E/DX2                !
 ! D64   D(10,13,14,17)        172.4452         estimate D2E/DX2                !
 ! D65   D(1,14,15,16)         -44.5075         estimate D2E/DX2                !
 ! D66   D(2,14,15,16)         -12.9296         estimate D2E/DX2                !
 ! D67   D(5,14,15,16)        -110.5567         estimate D2E/DX2                !
 ! D68   D(13,14,15,16)         76.6842         estimate D2E/DX2                !
 ! D69   D(17,14,15,16)        173.9368         estimate D2E/DX2                !
 ! D70   D(1,14,17,18)          14.2545         estimate D2E/DX2                !
 ! D71   D(2,14,17,18)         126.6965         estimate D2E/DX2                !
 ! D72   D(5,14,17,18)          15.4063         estimate D2E/DX2                !
 ! D73   D(13,14,17,18)        -99.8675         estimate D2E/DX2                !
 ! D74   D(15,14,17,18)        146.7188         estimate D2E/DX2                !
 --------------------------------------------------------------------------------
 Trust Radius=3.00D-01 FncErr=1.00D-07 GrdErr=1.00D-06 EigMax=2.50D+02 EigMin=1.00D-04
 Number of steps in this run=    108 maximum allowed number of steps=    108.
 GradGradGradGradGradGradGradGradGradGradGradGradGradGradGradGradGradGrad

                          Input orientation:                          
 ---------------------------------------------------------------------
 Center     Atomic      Atomic             Coordinates (Angstroms)
 Number     Number       Type             X           Y           Z
 ---------------------------------------------------------------------
      1         42           0       -0.084265    1.062636   11.482693
      2         16           0        1.357045    2.901217   11.938038
      3         16           0       -1.664768    1.550154   13.183600
      4         16           0       -1.214242    1.521556    9.471346
      5         16           0        1.140017   -0.726561   10.837703
      6         42           0       -2.347980    2.624297   11.267919
      7         16           0       -4.439556    2.130550   10.372387
      8          1           0       -4.270939    1.197866    9.411868
      9         16           0       -1.531463    4.769614   11.311865
     10         42           0       -0.028035    3.475141   10.107791
     11         16           0        0.577292    5.239010    8.647132
     12          1           0       -0.383021    6.147248    8.922643
     13         16           0        1.952030    2.372594    8.606510
     14         42           0        2.481586    1.236253   10.415027
     15         16           0        4.454702    1.999807   11.547789
     16          1           0        4.031435    3.106818   12.191594
     17         16           0        4.133241   -0.255808    9.566369
     18          1           0        3.443282   -1.404010    9.389124
 ---------------------------------------------------------------------
                    Distance matrix (angstroms):
                    1          2          3          4          5
     1  Mo   0.000000
     2  S    2.380146   0.000000
     3  S    2.372498   3.536686   0.000000
     4  S    2.352227   3.820936   3.739602   0.000000
     5  S    2.261881   3.797185   4.307375   3.530368   0.000000
     6  Mo   2.758499   3.775309   2.300086   2.393548   4.855868
     7  S    4.619716   6.053575   3.992396   3.403733   6.285796
     8  H    4.672777   6.399777   4.598064   3.074363   5.917336
     9  S    3.983121   3.496638   3.726404   3.746735   6.129402
    10  Mo   2.777354   2.365933   3.980587   2.372476   4.421698
    11  S    5.091185   4.111369   6.262111   4.208133   6.379914
    12  H    5.700561   4.759953   6.397805   4.731705   7.296324
    13  S    3.759643   3.425278   5.891298   3.390794   3.904145
    14  Mo   2.784537   2.521162   4.995576   3.825059   2.414767
    15  S    4.635164   3.249664   6.350274   6.056176   4.350223
    16  H    4.649753   2.694239   5.987822   6.118001   4.988799
    17  S    4.816425   4.826892   7.068435   5.635923   3.285923
    18  H    4.786540   5.420731   7.015505   5.500748   2.803988
                    6          7          8          9         10
     6  Mo   0.000000
     7  S    2.328187   0.000000
     8  H    3.029423   1.349418   0.000000
     9  S    2.295869   4.037856   4.885908   0.000000
    10  Mo   2.729831   4.619465   4.865442   2.320722   0.000000
    11  S    4.718312   6.148804   6.357752   3.430449   2.368793
    12  H    4.666108   5.889915   6.312815   2.987503   2.944613
    13  S    5.063254   6.635456   6.383881   5.019898   2.718476
    14  Mo   5.096940   6.978810   6.826741   5.421579   3.377160
    15  S    6.837017   8.972541   9.018984   6.600126   4.934079
    16  H    6.463972   8.718962   8.961048   5.872363   4.577903
    17  S    7.293593   8.935167   8.530374   7.771132   5.615099
    18  H    7.300400   8.694772   8.141221   8.158349   6.030973
                   11         12         13         14         15
    11  S    0.000000
    12  H    1.350187   0.000000
    13  S    3.179292   4.449766   0.000000
    14  Mo   4.772196   5.878015   2.200553   0.000000
    15  S    5.825852   6.891750   3.879879   2.399865   0.000000
    16  H    5.388929   6.278350   4.209019   3.009524   1.348745
    17  S    6.609296   7.861942   3.547888   2.382106   3.019464
    18  H    7.272838   8.478189   4.135100   2.991375   4.155572
                   16         17         18
    16  H    0.000000
    17  S    4.267250   0.000000
    18  H    5.342970   1.351232   0.000000
 Symmetry turned off by external request.
 Stoichiometry    H4Mo4S10
 Framework group  C1[X(H4Mo4S10)]
 Deg. of freedom    48
 Full point group                 C1      NOp   1
 Rotational constants (GHZ):           0.2590136           0.1179253           0.1001113
 General basis read from cards:  (5D, 7F)
 ======================================================================================================
                                       Pseudopotential Parameters
 ======================================================================================================
  Center     Atomic      Valence      Angular      Power
  Number     Number     Electrons     Momentum     of R      Exponent        Coefficient   SO-Coeffient
 ======================================================================================================
    1         42           14
                                      F and up 
                                                     0      537.9667807       -0.04694920    0.00000000
                                                     1      147.8982938      -20.20800840    0.00000000
                                                     2       45.7358898     -106.21163020    0.00000000
                                                     2       13.2911467      -41.81073680    0.00000000
                                                     2        4.7059961       -4.20541030    0.00000000
                                      S - F
                                                     0      110.2991760        2.80637170    0.00000000
                                                     1       23.2014645       44.51620120    0.00000000
                                                     2        5.3530131       82.77852270    0.00000000
                                      P - F
                                                     0       63.2901397        4.94208760    0.00000000
                                                     1       23.3315302       25.86049760    0.00000000
                                                     2       24.6759423      132.47087420    0.00000000
                                                     2        4.6493040       57.31497940    0.00000000
                                      D - F
                                                     0      104.4839977        3.00545910    0.00000000
                                                     1       66.2307245       26.36378510    0.00000000
                                                     2       39.1283176      183.38491990    0.00000000
                                                     2       13.1164437       98.44530680    0.00000000
                                                     2        3.6280263       22.49013770    0.00000000
    2         16
                                   No pseudopotential on this center.
    3         16
                                   No pseudopotential on this center.
    4         16
                                   No pseudopotential on this center.
    5         16
                                   No pseudopotential on this center.
    6         42           14
                                      F and up 
                                                     0      537.9667807       -0.04694920    0.00000000
                                                     1      147.8982938      -20.20800840    0.00000000
                                                     2       45.7358898     -106.21163020    0.00000000
                                                     2       13.2911467      -41.81073680    0.00000000
                                                     2        4.7059961       -4.20541030    0.00000000
                                      S - F
                                                     0      110.2991760        2.80637170    0.00000000
                                                     1       23.2014645       44.51620120    0.00000000
                                                     2        5.3530131       82.77852270    0.00000000
                                      P - F
                                                     0       63.2901397        4.94208760    0.00000000
                                                     1       23.3315302       25.86049760    0.00000000
                                                     2       24.6759423      132.47087420    0.00000000
                                                     2        4.6493040       57.31497940    0.00000000
                                      D - F
                                                     0      104.4839977        3.00545910    0.00000000
                                                     1       66.2307245       26.36378510    0.00000000
                                                     2       39.1283176      183.38491990    0.00000000
                                                     2       13.1164437       98.44530680    0.00000000
                                                     2        3.6280263       22.49013770    0.00000000
    7         16
                                   No pseudopotential on this center.
    8          1
                                   No pseudopotential on this center.
    9         16
                                   No pseudopotential on this center.
   10         42           14
                                      F and up 
                                                     0      537.9667807       -0.04694920    0.00000000
                                                     1      147.8982938      -20.20800840    0.00000000
                                                     2       45.7358898     -106.21163020    0.00000000
                                                     2       13.2911467      -41.81073680    0.00000000
                                                     2        4.7059961       -4.20541030    0.00000000
                                      S - F
                                                     0      110.2991760        2.80637170    0.00000000
                                                     1       23.2014645       44.51620120    0.00000000
                                                     2        5.3530131       82.77852270    0.00000000
                                      P - F
                                                     0       63.2901397        4.94208760    0.00000000
                                                     1       23.3315302       25.86049760    0.00000000
                                                     2       24.6759423      132.47087420    0.00000000
                                                     2        4.6493040       57.31497940    0.00000000
                                      D - F
                                                     0      104.4839977        3.00545910    0.00000000
                                                     1       66.2307245       26.36378510    0.00000000
                                                     2       39.1283176      183.38491990    0.00000000
                                                     2       13.1164437       98.44530680    0.00000000
                                                     2        3.6280263       22.49013770    0.00000000
   11         16
                                   No pseudopotential on this center.
   12          1
                                   No pseudopotential on this center.
   13         16
                                   No pseudopotential on this center.
   14         42           14
                                      F and up 
                                                     0      537.9667807       -0.04694920    0.00000000
                                                     1      147.8982938      -20.20800840    0.00000000
                                                     2       45.7358898     -106.21163020    0.00000000
                                                     2       13.2911467      -41.81073680    0.00000000
                                                     2        4.7059961       -4.20541030    0.00000000
                                      S - F
                                                     0      110.2991760        2.80637170    0.00000000
                                                     1       23.2014645       44.51620120    0.00000000
                                                     2        5.3530131       82.77852270    0.00000000
                                      P - F
                                                     0       63.2901397        4.94208760    0.00000000
                                                     1       23.3315302       25.86049760    0.00000000
                                                     2       24.6759423      132.47087420    0.00000000
                                                     2        4.6493040       57.31497940    0.00000000
                                      D - F
                                                     0      104.4839977        3.00545910    0.00000000
                                                     1       66.2307245       26.36378510    0.00000000
                                                     2       39.1283176      183.38491990    0.00000000
                                                     2       13.1164437       98.44530680    0.00000000
                                                     2        3.6280263       22.49013770    0.00000000
   15         16
                                   No pseudopotential on this center.
   16          1
                                   No pseudopotential on this center.
   17         16
                                   No pseudopotential on this center.
   18          1
                                   No pseudopotential on this center.
 ======================================================================================================
   288 basis functions,   744 primitive gaussians,   306 cartesian basis functions
   110 alpha electrons      110 beta electrons
       nuclear repulsion energy      3111.5381019698 Hartrees.
 NAtoms=   18 NActive=   18 NUniq=   18 SFac= 1.00D+00 NAtFMM=   60 NAOKFM=F Big=F
 Integral buffers will be    131072 words long.
 Raffenetti 2 integral format.
 Two-electron integral symmetry is turned off.
 One-electron integrals computed using PRISM.
   1 Symmetry operations used in ECPInt.
 ECPInt:  NShTT=    4465 NPrTT=   33805 LenC2=    4060 LenP2D=   20341.
 LDataN:  DoStor=T MaxTD1= 5 Len=  102
 NBasis=   288 RedAO= T EigKep=  1.16D-03  NBF=   288
 NBsUse=   288 1.00D-06 EigRej= -1.00D+00 NBFU=   288
 Defaulting to unpruned grid for atomic number  42.
 Defaulting to unpruned grid for atomic number  42.
 Defaulting to unpruned grid for atomic number  42.
 Defaulting to unpruned grid for atomic number  42.
 ExpMin= 2.47D-02 ExpMax= 2.19D+04 ExpMxC= 3.30D+03 IAcc=3 IRadAn=         5 AccDes= 0.00D+00
 Harris functional with IExCor=  402 and IRadAn=       5 diagonalized for initial guess.
 HarFok:  IExCor=  402 AccDes= 0.00D+00 IRadAn=         5 IDoV= 1 UseB2=F ITyADJ=14
 ICtDFT=  3500011 ScaDFX=  1.000000  1.000000  1.000000  1.000000
 Defaulting to unpruned grid for atomic number  42.
 FoFCou: FMM=F IPFlag=           0 FMFlag=      100000 FMFlg1=           0
         NFxFlg=           0 DoJE=T BraDBF=F KetDBF=T FulRan=T
         wScrn=  0.000000 ICntrl=       500 IOpCl=  0 I1Cent=   200000004 NGrid=           0
         NMat0=    1 NMatS0=      1 NMatT0=    0 NMatD0=    1 NMtDS0=    0 NMtDT0=    0
 Symmetry not used in FoFCou.
 Requested convergence on RMS density matrix=1.00D-08 within 128 cycles.
 Requested convergence on MAX density matrix=1.00D-06.
 Requested convergence on             energy=1.00D-06.
 No special actions if energy rises.
 Defaulting to unpruned grid for atomic number  42.
 Defaulting to unpruned grid for atomic number  42.
 Defaulting to unpruned grid for atomic number  42.
 Defaulting to unpruned grid for atomic number  42.
 Defaulting to unpruned grid for atomic number  42.
 Defaulting to unpruned grid for atomic number  42.
 Defaulting to unpruned grid for atomic number  42.
 Defaulting to unpruned grid for atomic number  42.
 Defaulting to unpruned grid for atomic number  42.
 Defaulting to unpruned grid for atomic number  42.
 Defaulting to unpruned grid for atomic number  42.
 Defaulting to unpruned grid for atomic number  42.
 Defaulting to unpruned grid for atomic number  42.
 Defaulting to unpruned grid for atomic number  42.
 Defaulting to unpruned grid for atomic number  42.
 Defaulting to unpruned grid for atomic number  42.
 Defaulting to unpruned grid for atomic number  42.
 Defaulting to unpruned grid for atomic number  42.
 Defaulting to unpruned grid for atomic number  42.
 Defaulting to unpruned grid for atomic number  42.
 Defaulting to unpruned grid for atomic number  42.
 Defaulting to unpruned grid for atomic number  42.
 Defaulting to unpruned grid for atomic number  42.
 Defaulting to unpruned grid for atomic number  42.
 Defaulting to unpruned grid for atomic number  42.
 Defaulting to unpruned grid for atomic number  42.
 Defaulting to unpruned grid for atomic number  42.
 Defaulting to unpruned grid for atomic number  42.
 Defaulting to unpruned grid for atomic number  42.
 Defaulting to unpruned grid for atomic number  42.
 Defaulting to unpruned grid for atomic number  42.
 Defaulting to unpruned grid for atomic number  42.
 Defaulting to unpruned grid for atomic number  42.
 Defaulting to unpruned grid for atomic number  42.
 Defaulting to unpruned grid for atomic number  42.
 Defaulting to unpruned grid for atomic number  42.
 Defaulting to unpruned grid for atomic number  42.
 Defaulting to unpruned grid for atomic number  42.
 Defaulting to unpruned grid for atomic number  42.
 Defaulting to unpruned grid for atomic number  42.
 Defaulting to unpruned grid for atomic number  42.
 Defaulting to unpruned grid for atomic number  42.
 Defaulting to unpruned grid for atomic number  42.
 Defaulting to unpruned grid for atomic number  42.
 Defaulting to unpruned grid for atomic number  42.
 Defaulting to unpruned grid for atomic number  42.
 Defaulting to unpruned grid for atomic number  42.
 Defaulting to unpruned grid for atomic number  42.
 EnCoef did     5 forward-backward iterations
 EnCoef did   100 forward-backward iterations
 EnCoef did   100 forward-backward iterations
 EnCoef did   100 forward-backward iterations
 EnCoef did   100 forward-backward iterations
 EnCoef did     4 forward-backward iterations
 EnCoef did    11 forward-backward iterations
 EnCoef did     5 forward-backward iterations
 EnCoef did     5 forward-backward iterations
 EnCoef did     4 forward-backward iterations
 Restarting incremental Fock formation.
 SCF Done:  E(RB3LYP) =  -4254.89428231     A.U. after   27 cycles
            NFock= 27  Conv=0.24D-08     -V/T= 2.0466

 **********************************************************************

            Population analysis using the SCF Density.

 **********************************************************************

 Alpha  occ. eigenvalues --  -88.92667 -88.91920 -88.91136 -88.89640 -88.89423
 Alpha  occ. eigenvalues --  -88.89116 -88.88816 -88.88456 -88.87385 -88.86744
 Alpha  occ. eigenvalues --   -8.00310  -7.99542  -7.98987  -7.97423  -7.97285
 Alpha  occ. eigenvalues --   -7.96779  -7.96593  -7.96258  -7.95079  -7.94414
 Alpha  occ. eigenvalues --   -5.96294  -5.96254  -5.96240  -5.95564  -5.95509
 Alpha  occ. eigenvalues --   -5.95414  -5.94986  -5.94934  -5.94862  -5.93541
 Alpha  occ. eigenvalues --   -5.93432  -5.93376  -5.93302  -5.93168  -5.93021
 Alpha  occ. eigenvalues --   -5.92984  -5.92619  -5.92604  -5.92562  -5.92559
 Alpha  occ. eigenvalues --   -5.92461  -5.92316  -5.92246  -5.92044  -5.91334
 Alpha  occ. eigenvalues --   -5.90964  -5.90798  -5.90703  -5.90326  -5.90074
 Alpha  occ. eigenvalues --   -2.57211  -2.56180  -2.55780  -2.55581  -1.60521
 Alpha  occ. eigenvalues --   -1.59975  -1.59469  -1.58989  -1.58944  -1.58614
 Alpha  occ. eigenvalues --   -1.58186  -1.57879  -1.57568  -1.57188  -1.57039
 Alpha  occ. eigenvalues --   -1.56586  -0.76597  -0.75387  -0.74758  -0.74312
 Alpha  occ. eigenvalues --   -0.73426  -0.72945  -0.72392  -0.71405  -0.70897
 Alpha  occ. eigenvalues --   -0.70454  -0.46171  -0.45239  -0.44722  -0.42560
 Alpha  occ. eigenvalues --   -0.42257  -0.41740  -0.41604  -0.40400  -0.40063
 Alpha  occ. eigenvalues --   -0.39777  -0.39624  -0.37962  -0.37104  -0.36698
 Alpha  occ. eigenvalues --   -0.35965  -0.35837  -0.35094  -0.34805  -0.34368
 Alpha  occ. eigenvalues --   -0.33845  -0.33232  -0.32758  -0.32202  -0.31738
 Alpha  occ. eigenvalues --   -0.30843  -0.30202  -0.29577  -0.28926  -0.28421
 Alpha  occ. eigenvalues --   -0.27569  -0.27401  -0.26837  -0.25652  -0.24947
 Alpha virt. eigenvalues --   -0.17467  -0.15780  -0.15627  -0.14412  -0.13977
 Alpha virt. eigenvalues --   -0.13148  -0.12600  -0.12343  -0.10790  -0.10467
 Alpha virt. eigenvalues --   -0.09857  -0.09585  -0.08473  -0.08051  -0.06813
 Alpha virt. eigenvalues --   -0.04507  -0.01693  -0.00211  -0.00104   0.01213
 Alpha virt. eigenvalues --    0.01641   0.02688   0.03307   0.03589   0.03882
 Alpha virt. eigenvalues --    0.04662   0.05330   0.05663   0.05954   0.06170
 Alpha virt. eigenvalues --    0.06422   0.08107   0.08974   0.10285   0.11025
 Alpha virt. eigenvalues --    0.12401   0.13890   0.15079   0.15323   0.17219
 Alpha virt. eigenvalues --    0.17786   0.17989   0.19057   0.20383   0.21332
 Alpha virt. eigenvalues --    0.25206   0.25454   0.26282   0.27222   0.27964
 Alpha virt. eigenvalues --    0.29143   0.29801   0.30561   0.30728   0.31085
 Alpha virt. eigenvalues --    0.31761   0.32435   0.32807   0.33551   0.34184
 Alpha virt. eigenvalues --    0.34643   0.35118   0.35803   0.36209   0.36683
 Alpha virt. eigenvalues --    0.37304   0.37662   0.38027   0.38362   0.38999
 Alpha virt. eigenvalues --    0.39585   0.40162   0.40641   0.41380   0.42014
 Alpha virt. eigenvalues --    0.42844   0.43278   0.43714   0.44381   0.44849
 Alpha virt. eigenvalues --    0.45281   0.46271   0.46384   0.47737   0.48491
 Alpha virt. eigenvalues --    0.49303   0.50815   0.51675   0.52049   0.52881
 Alpha virt. eigenvalues --    0.53620   0.54337   0.55760   0.56617   0.57262
 Alpha virt. eigenvalues --    0.58150   0.59029   0.59825   0.61877   0.62730
 Alpha virt. eigenvalues --    0.63652   0.64838   0.66941   0.68889   0.69270
 Alpha virt. eigenvalues --    0.69881   0.70974   0.71746   0.72176   0.72812
 Alpha virt. eigenvalues --    0.73102   0.73554   0.73994   0.74771   0.74891
 Alpha virt. eigenvalues --    0.75802   0.76285   0.76865   0.77524   0.78152
 Alpha virt. eigenvalues --    0.79080   0.79733   0.80231   0.80628   0.81373
 Alpha virt. eigenvalues --    0.82486   0.84241   0.84654   0.86320   0.87075
 Alpha virt. eigenvalues --    0.87953   0.89034   0.89760   0.90834   0.90938
 Alpha virt. eigenvalues --    0.91816   0.93390   0.94397   0.95128   0.95269
 Alpha virt. eigenvalues --    0.96635   0.97714   0.99537   0.99856   1.00030
 Alpha virt. eigenvalues --    1.01485   1.02782   1.05092   1.05880   1.06795
 Alpha virt. eigenvalues --    1.07352   1.08553   1.10317   1.11283   1.11809
 Alpha virt. eigenvalues --    1.12788   1.13643   1.14905   1.16028   1.17100
 Alpha virt. eigenvalues --    1.19787   1.24219   2.05565   2.06432   2.07056
 Alpha virt. eigenvalues --    2.08336   2.08530   2.08997   2.11042   2.12724
 Alpha virt. eigenvalues --    2.70832   2.72167   2.73721   2.74513   6.56359
 Alpha virt. eigenvalues --    7.15766   9.71230  11.71062
          Condensed to atoms (all electrons):
               1          2          3          4          5          6
     1  Mo  14.135748   0.140706   0.177892   0.141134   0.210408  -0.296237
     2  S    0.140706  15.616300  -0.000131  -0.005519  -0.011881  -0.027834
     3  S    0.177892  -0.000131  15.659317  -0.013153   0.004210   0.271146
     4  S    0.141134  -0.005519  -0.013153  15.517989   0.005063   0.134839
     5  S    0.210408  -0.011881   0.004210   0.005063  15.717297  -0.032349
     6  Mo  -0.296237  -0.027834   0.271146   0.134839  -0.032349  13.564972
     7  S   -0.019289   0.000014   0.010386  -0.013654   0.000039   0.297454
     8  H    0.006540   0.000000  -0.000334  -0.003667  -0.000014  -0.034172
     9  S   -0.029324  -0.014080   0.008861  -0.011715  -0.000118   0.217398
    10  Mo  -0.251954   0.171012  -0.034334   0.094020  -0.005629  -0.139853
    11  S   -0.033977   0.016091  -0.000010   0.013022  -0.000076  -0.011324
    12  H   -0.000250  -0.000082  -0.000001   0.000019   0.000000   0.002400
    13  S   -0.076652  -0.055363  -0.000191  -0.013690   0.003744   0.003379
    14  Mo  -0.208965   0.094878  -0.015424  -0.019730   0.213407   0.018044
    15  S    0.006314  -0.040978   0.000011   0.000000   0.004444  -0.001135
    16  H    0.003929  -0.002062  -0.000010  -0.000003  -0.000138   0.000022
    17  S   -0.013897  -0.006862  -0.000004   0.000134  -0.025224  -0.001067
    18  H    0.006234  -0.000035   0.000000   0.000006  -0.008703   0.000068
               7          8          9         10         11         12
     1  Mo  -0.019289   0.006540  -0.029324  -0.251954  -0.033977  -0.000250
     2  S    0.000014   0.000000  -0.014080   0.171012   0.016091  -0.000082
     3  S    0.010386  -0.000334   0.008861  -0.034334  -0.000010  -0.000001
     4  S   -0.013654  -0.003667  -0.011715   0.094020   0.013022   0.000019
     5  S    0.000039  -0.000014  -0.000118  -0.005629  -0.000076   0.000000
     6  Mo   0.297454  -0.034172   0.217398  -0.139853  -0.011324   0.002400
     7  S   15.585744   0.273468   0.005913  -0.009699   0.000084   0.000000
     8  H    0.273468   0.651686  -0.000072   0.003765  -0.000004   0.000000
     9  S    0.005913  -0.000072  15.636259   0.228473  -0.014753  -0.011408
    10  Mo  -0.009699   0.003765   0.228473  13.823286   0.331265  -0.021332
    11  S    0.000084  -0.000004  -0.014753   0.331265  15.520578   0.259558
    12  H    0.000000   0.000000  -0.011408  -0.021332   0.259558   0.682397
    13  S    0.000020  -0.000001  -0.004907   0.163614  -0.033954   0.001435
    14  Mo  -0.000789   0.000018  -0.002027  -0.097571  -0.015452   0.001545
    15  S    0.000000   0.000000   0.000000  -0.003488   0.000126   0.000000
    16  H    0.000000   0.000000  -0.000007   0.003771   0.000007   0.000000
    17  S    0.000000   0.000000  -0.000001  -0.005977   0.000012   0.000000
    18  H    0.000000   0.000000   0.000000   0.000349   0.000000   0.000000
              13         14         15         16         17         18
     1  Mo  -0.076652  -0.208965   0.006314   0.003929  -0.013897   0.006234
     2  S   -0.055363   0.094878  -0.040978  -0.002062  -0.006862  -0.000035
     3  S   -0.000191  -0.015424   0.000011  -0.000010  -0.000004   0.000000
     4  S   -0.013690  -0.019730   0.000000  -0.000003   0.000134   0.000006
     5  S    0.003744   0.213407   0.004444  -0.000138  -0.025224  -0.008703
     6  Mo   0.003379   0.018044  -0.001135   0.000022  -0.001067   0.000068
     7  S    0.000020  -0.000789   0.000000   0.000000   0.000000   0.000000
     8  H   -0.000001   0.000018   0.000000   0.000000   0.000000   0.000000
     9  S   -0.004907  -0.002027   0.000000  -0.000007  -0.000001   0.000000
    10  Mo   0.163614  -0.097571  -0.003488   0.003771  -0.005977   0.000349
    11  S   -0.033954  -0.015452   0.000126   0.000007   0.000012   0.000000
    12  H    0.001435   0.001545   0.000000   0.000000   0.000000   0.000000
    13  S   15.700802   0.333071   0.015493  -0.000373  -0.003230  -0.000307
    14  Mo   0.333071  13.356568   0.303875  -0.039912   0.297948  -0.031158
    15  S    0.015493   0.303875  15.513199   0.263523  -0.056054   0.001154
    16  H   -0.000373  -0.039912   0.263523   0.703988   0.001787  -0.000008
    17  S   -0.003230   0.297948  -0.056054   0.001787  15.532872   0.260883
    18  H   -0.000307  -0.031158   0.001154  -0.000008   0.260883   0.691297
 Mulliken charges:
               1
     1  Mo   0.101638
     2  S    0.125828
     3  S   -0.068232
     4  S    0.174905
     5  S   -0.074479
     6  Mo   0.034248
     7  S   -0.129692
     8  H    0.102787
     9  S   -0.008493
    10  Mo  -0.249719
    11  S   -0.031192
    12  H    0.085718
    13  S   -0.032891
    14  Mo  -0.188326
    15  S   -0.006485
    16  H    0.065485
    17  S    0.018681
    18  H    0.080221
 Sum of Mulliken charges =   0.00000
 Mulliken charges with hydrogens summed into heavy atoms:
               1
     1  Mo   0.101638
     2  S    0.125828
     3  S   -0.068232
     4  S    0.174905
     5  S   -0.074479
     6  Mo   0.034248
     7  S   -0.026905
     9  S   -0.008493
    10  Mo  -0.249719
    11  S    0.054526
    13  S   -0.032891
    14  Mo  -0.188326
    15  S    0.059000
    17  S    0.098902
 Electronic spatial extent (au):  <R**2>=         100645.3888
 Charge=              0.0000 electrons
 Dipole moment (field-independent basis, Debye):
    X=             -4.4979    Y=              0.6415    Z=              0.2733  Tot=              4.5516
 Quadrupole moment (field-independent basis, Debye-Ang):
   XX=           -240.6535   YY=           -215.2649   ZZ=           -221.5278
   XY=             -7.2939   XZ=            -41.9439   YZ=             11.6976
 Traceless Quadrupole moment (field-independent basis, Debye-Ang):
   XX=            -14.8381   YY=             10.5505   ZZ=              4.2876
   XY=             -7.2939   XZ=            -41.9439   YZ=             11.6976
 Octapole moment (field-independent basis, Debye-Ang**2):
  XXX=           -286.3488  YYY=          -1375.5289  ZZZ=          -7167.7363  XYY=            -85.8471
  XXY=           -499.6930  XXZ=          -2564.8290  XZZ=           -459.1443  YZZ=           -311.7333
  YYZ=          -2283.0718  XYZ=            -58.5682
 Hexadecapole moment (field-independent basis, Debye-Ang**3):
 XXXX=          -8305.1628 YYYY=          -9171.0917 ZZZZ=        -155449.2081 XXXY=            299.0962
 XXXZ=          -2624.8058 YYYX=            167.1436 YYYZ=         -14461.2524 ZZZX=          -5424.5046
 ZZZY=         -12939.2982 XXYY=          -2871.8091 XXZZ=         -28959.2762 YYZZ=         -26193.7263
 XXYZ=          -5176.9838 YYXZ=           -728.4730 ZZXY=           -341.0915
 N-N= 3.111538101970D+03 E-N=-1.624177149057D+04  KE= 4.065374974436D+03
   1 Symmetry operations used in ECPInt.
 ECPInt:  NShTT=    4465 NPrTT=   33805 LenC2=    4060 LenP2D=   20341.
 LDataN:  DoStor=T MaxTD1= 6 Len=  172
 Calling FoFJK, ICntrl=      2127 FMM=F ISym2X=0 I1Cent= 0 IOpClX= 0 NMat=1 NMatS=1 NMatT=0.
 Defaulting to unpruned grid for atomic number  42.
 Defaulting to unpruned grid for atomic number  42.
 Defaulting to unpruned grid for atomic number  42.
 Defaulting to unpruned grid for atomic number  42.
 Defaulting to unpruned grid for atomic number  42.
 Defaulting to unpruned grid for atomic number  42.
 Defaulting to unpruned grid for atomic number  42.
 Defaulting to unpruned grid for atomic number  42.
 Defaulting to unpruned grid for atomic number  42.
 Defaulting to unpruned grid for atomic number  42.
 Defaulting to unpruned grid for atomic number  42.
 Defaulting to unpruned grid for atomic number  42.
 Defaulting to unpruned grid for atomic number  42.
 Defaulting to unpruned grid for atomic number  42.
 Defaulting to unpruned grid for atomic number  42.
 Defaulting to unpruned grid for atomic number  42.
 Defaulting to unpruned grid for atomic number  42.
 Defaulting to unpruned grid for atomic number  42.
 Defaulting to unpruned grid for atomic number  42.
 Defaulting to unpruned grid for atomic number  42.
 Defaulting to unpruned grid for atomic number  42.
 Defaulting to unpruned grid for atomic number  42.
 Defaulting to unpruned grid for atomic number  42.
 Defaulting to unpruned grid for atomic number  42.
 Defaulting to unpruned grid for atomic number  42.
 Defaulting to unpruned grid for atomic number  42.
 Defaulting to unpruned grid for atomic number  42.
 Defaulting to unpruned grid for atomic number  42.
 Defaulting to unpruned grid for atomic number  42.
 Defaulting to unpruned grid for atomic number  42.
 Defaulting to unpruned grid for atomic number  42.
 Defaulting to unpruned grid for atomic number  42.
 Defaulting to unpruned grid for atomic number  42.
 Defaulting to unpruned grid for atomic number  42.
 Defaulting to unpruned grid for atomic number  42.
 Defaulting to unpruned grid for atomic number  42.
 Defaulting to unpruned grid for atomic number  42.
 Defaulting to unpruned grid for atomic number  42.
 Defaulting to unpruned grid for atomic number  42.
 Defaulting to unpruned grid for atomic number  42.
 Defaulting to unpruned grid for atomic number  42.
 Defaulting to unpruned grid for atomic number  42.
 Defaulting to unpruned grid for atomic number  42.
 Defaulting to unpruned grid for atomic number  42.
 Defaulting to unpruned grid for atomic number  42.
 Defaulting to unpruned grid for atomic number  42.
 Defaulting to unpruned grid for atomic number  42.
 Defaulting to unpruned grid for atomic number  42.
 -------------------------------------------------------------------
 Center     Atomic                   Forces (Hartrees/Bohr)
 Number     Number              X              Y              Z
 -------------------------------------------------------------------
      1       42           0.000543528    0.000197570    0.000027125
      2       16          -0.000176259    0.000182890   -0.000165308
      3       16          -0.000008726   -0.000312654   -0.000045100
      4       16          -0.000002671    0.000313109    0.000169338
      5       16          -0.000166404    0.000185045    0.000235428
      6       42           0.000349359    0.000195901    0.000178692
      7       16           0.000005193   -0.000016360   -0.000200050
      8        1          -0.000031450    0.000142527    0.000086710
      9       16          -0.000106780   -0.000295685   -0.000202431
     10       42          -0.000349610   -0.000089487   -0.000031153
     11       16           0.000608501   -0.000367979   -0.000041520
     12        1          -0.000540512    0.000310645    0.000071312
     13       16          -0.000324750    0.000734095    0.000007972
     14       42           0.000752082   -0.001694457   -0.000809634
     15       16           0.000453022   -0.000711375   -0.000435565
     16        1          -0.000482105    0.000732138    0.000466353
     17       16          -0.000988831   -0.000129433    0.000460185
     18        1           0.000466413    0.000623513    0.000227648
 -------------------------------------------------------------------
 Cartesian Forces:  Max     0.001694457 RMS     0.000444988

 GradGradGradGradGradGradGradGradGradGradGradGradGradGradGradGradGradGrad
 Berny optimization.
 FormGI is forming the generalized inverse of G from B-inverse, IUseBI=4.
 Internal  Forces:  Max     0.000975323 RMS     0.000173572
 Search for a local minimum.
 Step number   1 out of a maximum of  108
 All quantities printed in internal units (Hartrees-Bohrs-Radians)
 Mixed Optimization -- En-DIIS/RFO-DIIS
 Second derivative matrix not updated -- first step.
 ITU=  0
     Eigenvalues ---    0.00230   0.00230   0.00230   0.00230   0.01095
     Eigenvalues ---    0.02094   0.02891   0.03244   0.04398   0.05564
     Eigenvalues ---    0.05894   0.05959   0.06895   0.07473   0.07967
     Eigenvalues ---    0.08631   0.09219   0.10120   0.10400   0.10590
     Eigenvalues ---    0.11231   0.12012   0.12255   0.12496   0.12779
     Eigenvalues ---    0.13127   0.13193   0.13616   0.13948   0.14188
     Eigenvalues ---    0.14324   0.14568   0.14823   0.15600   0.15862
     Eigenvalues ---    0.16000   0.16000   0.16000   0.16000   0.16890
     Eigenvalues ---    0.17060   0.17362   0.19054   0.19586   0.25544
     Eigenvalues ---    0.25624   0.25683   0.25735
 RFO step:  Lambda=-5.98824086D-05 EMin= 2.30000000D-03
 Linear search not attempted -- first point.
 Iteration  1 RMS(Cart)=  0.00842888 RMS(Int)=  0.00010744
 Iteration  2 RMS(Cart)=  0.00010506 RMS(Int)=  0.00000137
 Iteration  3 RMS(Cart)=  0.00000001 RMS(Int)=  0.00000137
 Variable       Old X    -DE/DX   Delta X   Delta X   Delta X     New X
                                 (Linear)    (Quad)   (Total)
    R1        4.49782  -0.00009   0.00000  -0.00088  -0.00088   4.49695
    R2        4.48337  -0.00005   0.00000  -0.00083  -0.00083   4.48254
    R3        4.44507   0.00006   0.00000   0.00038   0.00038   4.44545
    R4        4.27434  -0.00017   0.00000  -0.00140  -0.00140   4.27293
    R5        5.21281   0.00013   0.00000   0.00028   0.00028   5.21309
    R6        5.24844   0.00012   0.00000   0.00069   0.00069   5.24913
    R7        5.26201  -0.00003   0.00000  -0.00093  -0.00093   5.26108
    R8        4.47097  -0.00014   0.00000  -0.00129  -0.00129   4.46967
    R9        4.76431   0.00020   0.00000   0.00261   0.00261   4.76692
   R10        4.34653   0.00000   0.00000   0.00059   0.00058   4.34712
   R11        4.52315  -0.00013   0.00000  -0.00073  -0.00073   4.52242
   R12        4.48333  -0.00019   0.00000  -0.00173  -0.00173   4.48160
   R13        4.56325  -0.00011   0.00000  -0.00101  -0.00101   4.56224
   R14        4.39964   0.00004   0.00000   0.00028   0.00028   4.39991
   R15        4.33856  -0.00026   0.00000  -0.00171  -0.00171   4.33685
   R16        5.15863  -0.00021   0.00000  -0.00103  -0.00103   5.15761
   R17        2.55003  -0.00016   0.00000  -0.00064  -0.00064   2.54939
   R18        4.38553  -0.00014   0.00000  -0.00101  -0.00101   4.38452
   R19        4.47637  -0.00004   0.00000  -0.00033  -0.00033   4.47604
   R20        5.13718  -0.00026   0.00000  -0.00171  -0.00171   5.13546
   R21        2.55148   0.00061   0.00000   0.00237   0.00237   2.55386
   R22        4.15844   0.00049   0.00000   0.00251   0.00252   4.16096
   R23        4.53509   0.00000   0.00000  -0.00002  -0.00002   4.53507
   R24        4.50153  -0.00092   0.00000  -0.00717  -0.00717   4.49436
   R25        2.54876   0.00098   0.00000   0.00379   0.00379   2.55255
   R26        2.55346  -0.00080   0.00000  -0.00313  -0.00313   2.55033
    A1        1.67852   0.00009   0.00000   0.00095   0.00095   1.67948
    A2        1.87945  -0.00011   0.00000  -0.00086  -0.00086   1.87859
    A3        1.91540   0.00005   0.00000   0.00100   0.00100   1.91640
    A4        1.64539  -0.00008   0.00000  -0.00047  -0.00047   1.64491
    A5        1.82649  -0.00009   0.00000  -0.00031  -0.00031   1.82618
    A6        2.38556  -0.00010   0.00000  -0.00145  -0.00145   2.38411
    A7        1.76186  -0.00001   0.00000   0.00046   0.00046   1.76232
    A8        2.63817   0.00011   0.00000   0.00123   0.00123   2.63940
    A9        1.74215   0.00012   0.00000   0.00047   0.00047   1.74262
   A10        1.67361   0.00003   0.00000   0.00016   0.00016   1.67377
   A11        2.62559   0.00005   0.00000  -0.00025  -0.00025   2.62534
   A12        2.13529   0.00011   0.00000   0.00094   0.00094   2.13623
   A13        2.33371   0.00002   0.00000   0.00066   0.00065   2.33437
   A14        1.30505   0.00010   0.00000   0.00101   0.00101   1.30607
   A15        1.52479   0.00012   0.00000   0.00092   0.00092   1.52571
   A16        2.27460   0.00004   0.00000   0.00067   0.00067   2.27527
   A17        1.80869   0.00009   0.00000   0.00030   0.00030   1.80899
   A18        1.84346  -0.00005   0.00000  -0.00040  -0.00040   1.84306
   A19        2.08079  -0.00002   0.00000   0.00051   0.00051   2.08130
   A20        1.89104   0.00019   0.00000   0.00129   0.00129   1.89233
   A21        1.82046   0.00007   0.00000   0.00062   0.00062   1.82107
   A22        1.60991   0.00001   0.00000  -0.00010  -0.00010   1.60981
   A23        1.85086  -0.00001   0.00000  -0.00024  -0.00024   1.85062
   A24        2.12355  -0.00016   0.00000  -0.00141  -0.00141   2.12214
   A25        2.29978  -0.00006   0.00000  -0.00115  -0.00115   2.29863
   A26        1.88401   0.00004   0.00000   0.00025   0.00025   1.88426
   A27        1.78703   0.00005   0.00000   0.00000   0.00000   1.78704
   A28        2.84809  -0.00004   0.00000  -0.00015  -0.00015   2.84794
   A29        1.50659   0.00001   0.00000   0.00011   0.00011   1.50670
   A30        1.87599  -0.00002   0.00000  -0.00009  -0.00009   1.87590
   A31        1.66409   0.00001   0.00000  -0.00007  -0.00007   1.66402
   A32        1.68424   0.00010   0.00000   0.00022   0.00022   1.68446
   A33        2.10371  -0.00001   0.00000  -0.00035  -0.00035   2.10336
   A34        1.47306  -0.00001   0.00000  -0.00064  -0.00064   1.47242
   A35        1.84895  -0.00003   0.00000  -0.00014  -0.00014   1.84881
   A36        2.18402   0.00000   0.00000   0.00036   0.00036   2.18438
   A37        1.45258   0.00002   0.00000   0.00072   0.00072   1.45330
   A38        2.36216   0.00001   0.00000   0.00027   0.00027   2.36244
   A39        2.38517   0.00004   0.00000   0.00067   0.00067   2.38584
   A40        1.64098  -0.00001   0.00000   0.00004   0.00004   1.64103
   A41        1.34420  -0.00005   0.00000  -0.00022  -0.00022   1.34398
   A42        1.76534  -0.00018   0.00000  -0.00112  -0.00112   1.76422
   A43        1.50159   0.00011   0.00000   0.00116   0.00116   1.50275
   A44        1.69670  -0.00012   0.00000  -0.00040  -0.00040   1.69629
   A45        2.20988  -0.00009   0.00000  -0.00179  -0.00179   2.20809
   A46        2.39861   0.00003   0.00000   0.00027   0.00026   2.39887
   A47        1.75509  -0.00005   0.00000  -0.00020  -0.00021   1.75488
   A48        1.61893  -0.00027   0.00000  -0.00262  -0.00262   1.61631
   A49        1.44191  -0.00002   0.00000  -0.00141  -0.00141   1.44051
   A50        2.78798  -0.00004   0.00000  -0.00240  -0.00240   2.78558
   A51        2.01518   0.00008   0.00000   0.00146   0.00146   2.01664
   A52        2.25593  -0.00006   0.00000   0.00009   0.00009   2.25601
   A53        1.50919   0.00006   0.00000   0.00034   0.00034   1.50953
   A54        2.00587   0.00001   0.00000  -0.00109  -0.00109   2.00478
   A55        1.76961   0.00028   0.00000   0.00453   0.00453   1.77414
   A56        1.36677  -0.00003   0.00000  -0.00060  -0.00060   1.36616
   A57        1.80126  -0.00043   0.00000  -0.00272  -0.00272   1.79855
   A58        1.79768   0.00008   0.00000   0.00052   0.00052   1.79819
   A59        3.29362   0.00006   0.00000   0.00011   0.00011   3.29373
   A60        3.23053  -0.00006   0.00000   0.00064   0.00064   3.23118
    D1        2.87393  -0.00010   0.00000  -0.00171  -0.00171   2.87222
    D2        0.14899   0.00000   0.00000  -0.00020  -0.00020   0.14879
    D3        0.34466  -0.00015   0.00000  -0.00288  -0.00288   0.34178
    D4       -2.38028  -0.00005   0.00000  -0.00137  -0.00137  -2.38166
    D5        2.03430  -0.00008   0.00000  -0.00194  -0.00194   2.03235
    D6       -0.69065   0.00002   0.00000  -0.00043  -0.00044  -0.69108
    D7        0.00929   0.00003   0.00000   0.00057   0.00057   0.00987
    D8        2.92692   0.00003   0.00000  -0.00102  -0.00102   2.92590
    D9        3.06194   0.00008   0.00000  -0.00007  -0.00007   3.06187
   D10        3.12261  -0.00005   0.00000  -0.00073  -0.00073   3.12189
   D11       -0.24294  -0.00005   0.00000  -0.00232  -0.00232  -0.24526
   D12       -0.10792   0.00001   0.00000  -0.00137  -0.00137  -0.10929
   D13       -2.62074  -0.00008   0.00000  -0.00052  -0.00052  -2.62126
   D14        0.29689  -0.00008   0.00000  -0.00212  -0.00212   0.29477
   D15        0.43192  -0.00002   0.00000  -0.00117  -0.00117   0.43075
   D16       -2.03152   0.00004   0.00000  -0.00017  -0.00018  -2.03170
   D17        0.21231  -0.00014   0.00000  -0.00353  -0.00353   0.20878
   D18        2.23407  -0.00029   0.00000  -0.00718  -0.00719   2.22689
   D19        0.33501   0.00009   0.00000   0.00185   0.00184   0.33685
   D20        2.57884  -0.00009   0.00000  -0.00151  -0.00151   2.57733
   D21       -1.68258  -0.00024   0.00000  -0.00516  -0.00517  -1.68775
   D22       -0.46617   0.00016   0.00000   0.00254   0.00254  -0.46363
   D23        1.77766  -0.00002   0.00000  -0.00081  -0.00081   1.77684
   D24       -2.48377  -0.00017   0.00000  -0.00447  -0.00447  -2.48823
   D25       -0.54707   0.00014   0.00000   0.00214   0.00214  -0.54493
   D26        1.69676  -0.00003   0.00000  -0.00121  -0.00121   1.69555
   D27       -2.56466  -0.00018   0.00000  -0.00487  -0.00487  -2.56953
   D28        1.05611  -0.00007   0.00000  -0.00089  -0.00089   1.05523
   D29        2.02262  -0.00005   0.00000  -0.00078  -0.00078   2.02183
   D30        2.95860  -0.00007   0.00000  -0.00098  -0.00098   2.95762
   D31       -1.60408  -0.00003   0.00000  -0.00087  -0.00086  -1.60495
   D32       -0.35892  -0.00009   0.00000  -0.00144  -0.00144  -0.36036
   D33       -1.58685   0.00001   0.00000   0.00044   0.00044  -1.58641
   D34        0.44712   0.00002   0.00000   0.00130   0.00130   0.44842
   D35        2.45054   0.00007   0.00000   0.00053   0.00053   2.45107
   D36        2.79542   0.00001   0.00000   0.00268   0.00268   2.79810
   D37        1.34673   0.00005   0.00000   0.00039   0.00039   1.34711
   D38       -0.49626  -0.00002   0.00000  -0.00774  -0.00774  -0.50400
   D39       -1.67036   0.00002   0.00000  -0.00788  -0.00788  -1.67824
   D40        0.23747  -0.00004   0.00000  -0.00829  -0.00829   0.22918
   D41        2.16495  -0.00008   0.00000  -0.00903  -0.00902   2.15593
   D42        0.97445   0.00003   0.00000  -0.00771  -0.00771   0.96674
   D43       -0.14618  -0.00008   0.00000  -0.00087  -0.00087  -0.14705
   D44       -2.67953  -0.00009   0.00000  -0.00043  -0.00043  -2.67995
   D45        1.38095  -0.00008   0.00000  -0.00185  -0.00185   1.37910
   D46       -2.84410  -0.00007   0.00000  -0.00108  -0.00108  -2.84518
   D47        0.90574  -0.00009   0.00000  -0.00064  -0.00064   0.90510
   D48       -1.31697  -0.00007   0.00000  -0.00206  -0.00206  -1.31903
   D49       -3.14111  -0.00001   0.00000  -0.02329  -0.02329   3.11878
   D50       -1.96361  -0.00011   0.00000  -0.02507  -0.02507  -1.98869
   D51        1.74843  -0.00006   0.00000  -0.02487  -0.02487   1.72356
   D52        0.45644  -0.00009   0.00000  -0.02546  -0.02546   0.43098
   D53       -0.21872  -0.00001   0.00000  -0.02486  -0.02486  -0.24358
   D54        3.00378  -0.00007   0.00000  -0.02428  -0.02428   2.97950
   D55       -0.53790   0.00009   0.00000   0.00186   0.00186  -0.53604
   D56        0.41477   0.00007   0.00000   0.00165   0.00165   0.41642
   D57       -1.47721   0.00008   0.00000   0.00175   0.00175  -1.47546
   D58       -1.18851   0.00006   0.00000   0.00248   0.00248  -1.18604
   D59        2.56372   0.00007   0.00000   0.00156   0.00156   2.56527
   D60        0.53987  -0.00009   0.00000  -0.00171  -0.00171   0.53816
   D61       -0.38634  -0.00003   0.00000  -0.00111  -0.00111  -0.38745
   D62        1.41256  -0.00020   0.00000  -0.00241  -0.00242   1.41014
   D63       -1.83734   0.00012   0.00000   0.00164   0.00164  -1.83570
   D64        3.00974   0.00002   0.00000   0.00047   0.00047   3.01020
   D65       -0.77680   0.00006   0.00000   0.01729   0.01728  -0.75952
   D66       -0.22566   0.00009   0.00000   0.01704   0.01704  -0.20863
   D67       -1.92958   0.00017   0.00000   0.01844   0.01844  -1.91114
   D68        1.33839  -0.00021   0.00000   0.01362   0.01362   1.35202
   D69        3.03577   0.00009   0.00000   0.01856   0.01856   3.05433
   D70        0.24879   0.00004   0.00000  -0.02657  -0.02657   0.22222
   D71        2.21127  -0.00007   0.00000  -0.03225  -0.03225   2.17902
   D72        0.26889  -0.00005   0.00000  -0.03023  -0.03023   0.23866
   D73       -1.74302  -0.00015   0.00000  -0.03191  -0.03192  -1.77494
   D74        2.56073  -0.00012   0.00000  -0.03009  -0.03009   2.53063
         Item               Value     Threshold  Converged?
 Maximum Force            0.000975     0.000450     NO 
 RMS     Force            0.000174     0.000300     YES
 Maximum Displacement     0.058940     0.001800     NO 
 RMS     Displacement     0.008425     0.001200     NO 
 Predicted change in Energy=-3.026114D-05
 GradGradGradGradGradGradGradGradGradGradGradGradGradGradGradGradGradGrad

                          Input orientation:                          
 ---------------------------------------------------------------------
 Center     Atomic      Atomic             Coordinates (Angstroms)
 Number     Number       Type             X           Y           Z
 ---------------------------------------------------------------------
      1         42           0       -0.080629    1.061961   11.478868
      2         16           0        1.360600    2.899961   11.934393
      3         16           0       -1.658654    1.543860   13.183063
      4         16           0       -1.214439    1.526017    9.470624
      5         16           0        1.140797   -0.726440   10.828878
      6         42           0       -2.344791    2.624248   11.271572
      7         16           0       -4.437943    2.134658   10.377059
      8          1           0       -4.270296    1.212624    9.406613
      9         16           0       -1.529026    4.768828   11.318068
     10         42           0       -0.027791    3.477676   10.108737
     11         16           0        0.575055    5.244908    8.651408
     12          1           0       -0.405116    6.139185    8.908177
     13         16           0        1.950357    2.380164    8.602889
     14         42           0        2.482898    1.235502   10.406897
     15         16           0        4.455961    1.998388   11.540179
     16          1           0        4.023114    3.092997   12.202750
     17         16           0        4.132620   -0.254161    9.560911
     18          1           0        3.453644   -1.411997    9.420314
 ---------------------------------------------------------------------
                    Distance matrix (angstroms):
                    1          2          3          4          5
     1  Mo   0.000000
     2  S    2.379682   0.000000
     3  S    2.372060   3.537525   0.000000
     4  S    2.352428   3.819516   3.738963   0.000000
     5  S    2.261138   3.797534   4.305041   3.530660   0.000000
     6  Mo   2.758649   3.774291   2.300395   2.393161   4.855143
     7  S    4.620698   6.052609   3.993388   3.403387   6.285887
     8  H    4.676564   6.398732   4.603473   3.072552   5.921380
     9  S    3.983036   3.496064   3.727657   3.745376   6.129049
    10  Mo   2.777720   2.365249   3.981311   2.371559   4.422533
    11  S    5.091316   4.110212   6.262835   4.207559   6.381100
    12  H    5.700171   4.771615   6.400236   4.717273   7.294913
    13  S    3.759497   3.422999   5.890871   3.390938   3.906585
    14  Mo   2.784046   2.522543   4.995462   3.825089   2.414233
    15  S    4.632635   3.247999   6.347770   6.054719   4.349822
    16  H    4.635711   2.682957   5.970203   6.111620   4.978290
    17  S    4.812712   4.823484   7.063407   5.636331   3.283564
    18  H    4.780083   5.412431   7.002211   5.515927   2.793439
                    6          7          8          9         10
     6  Mo   0.000000
     7  S    2.328334   0.000000
     8  H    3.029576   1.349080   0.000000
     9  S    2.294964   4.035610   4.880043   0.000000
    10  Mo   2.729287   4.617914   4.860277   2.320186   0.000000
    11  S    4.717904   6.146680   6.348786   3.429998   2.368616
    12  H    4.658622   5.870055   6.281645   2.991426   2.944036
    13  S    5.062582   6.634631   6.380097   5.018368   2.717569
    14  Mo   5.097339   6.979070   6.826912   5.423114   3.379320
    15  S    6.834770   8.970672   9.017599   6.598844   4.933696
    16  H    6.452676   8.708677   8.951807   5.866629   4.576320
    17  S    7.291670   8.934601   8.531369   7.769959   5.615669
    18  H    7.303442   8.704669   8.157700   8.162786   6.041789
                   11         12         13         14         15
    11  S    0.000000
    12  H    1.351443   0.000000
    13  S    3.178139   4.446537   0.000000
    14  Mo   4.774614   5.884972   2.201885   0.000000
    15  S    5.826347   6.906787   3.879624   2.399854   0.000000
    16  H    5.397394   6.304181   4.214671   3.007930   1.350750
    17  S    6.612354   7.867146   3.552428   2.378312   3.015962
    18  H    7.293276   8.495449   4.160353   2.987464   4.138743
                   16         17         18
    16  H    0.000000
    17  S    4.265533   0.000000
    18  H    5.325525   1.349578   0.000000
 Symmetry turned off by external request.
 Stoichiometry    H4Mo4S10
 Framework group  C1[X(H4Mo4S10)]
 Deg. of freedom    48
 Full point group                 C1      NOp   1
 Rotational constants (GHZ):           0.2590459           0.1179654           0.1001104
 Basis read from rwf:  (5D, 7F)
 Pseudo-potential data read from rwf file.
   288 basis functions,   744 primitive gaussians,   306 cartesian basis functions
   110 alpha electrons      110 beta electrons
       nuclear repulsion energy      3111.9415523337 Hartrees.
 NAtoms=   18 NActive=   18 NUniq=   18 SFac= 1.00D+00 NAtFMM=   60 NAOKFM=F Big=F
 Integral buffers will be    131072 words long.
 Raffenetti 2 integral format.
 Two-electron integral symmetry is turned off.
 One-electron integrals computed using PRISM.
   1 Symmetry operations used in ECPInt.
 ECPInt:  NShTT=    4465 NPrTT=   33805 LenC2=    4061 LenP2D=   20343.
 LDataN:  DoStor=T MaxTD1= 5 Len=  102
 NBasis=   288 RedAO= T EigKep=  1.16D-03  NBF=   288
 NBsUse=   288 1.00D-06 EigRej= -1.00D+00 NBFU=   288
 Defaulting to unpruned grid for atomic number  42.
 Defaulting to unpruned grid for atomic number  42.
 Defaulting to unpruned grid for atomic number  42.
 Defaulting to unpruned grid for atomic number  42.
 Initial guess from the checkpoint file:  "/localscratch/chesha/scratch/Gau-195167.chk"
 B after Tr=    -0.023550    0.039365   -0.009919
         Rot=    0.999999   -0.000938   -0.000640    0.000074 Ang=  -0.13 deg.
 ExpMin= 2.47D-02 ExpMax= 2.19D+04 ExpMxC= 3.30D+03 IAcc=3 IRadAn=         5 AccDes= 0.00D+00
 Harris functional with IExCor=  402 and IRadAn=       5 diagonalized for initial guess.
 HarFok:  IExCor=  402 AccDes= 0.00D+00 IRadAn=         5 IDoV= 1 UseB2=F ITyADJ=14
 ICtDFT=  3500011 ScaDFX=  1.000000  1.000000  1.000000  1.000000
 Defaulting to unpruned grid for atomic number  42.
 FoFCou: FMM=F IPFlag=           0 FMFlag=      100000 FMFlg1=           0
         NFxFlg=           0 DoJE=T BraDBF=F KetDBF=T FulRan=T
         wScrn=  0.000000 ICntrl=       500 IOpCl=  0 I1Cent=   200000004 NGrid=           0
         NMat0=    1 NMatS0=      1 NMatT0=    0 NMatD0=    1 NMtDS0=    0 NMtDT0=    0
 Symmetry not used in FoFCou.
 Requested convergence on RMS density matrix=1.00D-08 within 128 cycles.
 Requested convergence on MAX density matrix=1.00D-06.
 Requested convergence on             energy=1.00D-06.
 No special actions if energy rises.
 Defaulting to unpruned grid for atomic number  42.
 Defaulting to unpruned grid for atomic number  42.
 Defaulting to unpruned grid for atomic number  42.
 Defaulting to unpruned grid for atomic number  42.
 Defaulting to unpruned grid for atomic number  42.
 Defaulting to unpruned grid for atomic number  42.
 Defaulting to unpruned grid for atomic number  42.
 Defaulting to unpruned grid for atomic number  42.
 Defaulting to unpruned grid for atomic number  42.
 Defaulting to unpruned grid for atomic number  42.
 Defaulting to unpruned grid for atomic number  42.
 Defaulting to unpruned grid for atomic number  42.
 Defaulting to unpruned grid for atomic number  42.
 Defaulting to unpruned grid for atomic number  42.
 Defaulting to unpruned grid for atomic number  42.
 Defaulting to unpruned grid for atomic number  42.
 Defaulting to unpruned grid for atomic number  42.
 Defaulting to unpruned grid for atomic number  42.
 Defaulting to unpruned grid for atomic number  42.
 Defaulting to unpruned grid for atomic number  42.
 Defaulting to unpruned grid for atomic number  42.
 Defaulting to unpruned grid for atomic number  42.
 Defaulting to unpruned grid for atomic number  42.
 Defaulting to unpruned grid for atomic number  42.
 Defaulting to unpruned grid for atomic number  42.
 Defaulting to unpruned grid for atomic number  42.
 Defaulting to unpruned grid for atomic number  42.
 Defaulting to unpruned grid for atomic number  42.
 Defaulting to unpruned grid for atomic number  42.
 Defaulting to unpruned grid for atomic number  42.
 Defaulting to unpruned grid for atomic number  42.
 Defaulting to unpruned grid for atomic number  42.
 Defaulting to unpruned grid for atomic number  42.
 Defaulting to unpruned grid for atomic number  42.
 Defaulting to unpruned grid for atomic number  42.
 Defaulting to unpruned grid for atomic number  42.
 Defaulting to unpruned grid for atomic number  42.
 Defaulting to unpruned grid for atomic number  42.
 Defaulting to unpruned grid for atomic number  42.
 Defaulting to unpruned grid for atomic number  42.
 Defaulting to unpruned grid for atomic number  42.
 Defaulting to unpruned grid for atomic number  42.
 Defaulting to unpruned grid for atomic number  42.
 Defaulting to unpruned grid for atomic number  42.
 Defaulting to unpruned grid for atomic number  42.
 Defaulting to unpruned grid for atomic number  42.
 Defaulting to unpruned grid for atomic number  42.
 Defaulting to unpruned grid for atomic number  42.
 SCF Done:  E(RB3LYP) =  -4254.89430013     A.U. after   16 cycles
            NFock= 16  Conv=0.39D-08     -V/T= 2.0466
   1 Symmetry operations used in ECPInt.
 ECPInt:  NShTT=    4465 NPrTT=   33805 LenC2=    4061 LenP2D=   20343.
 LDataN:  DoStor=T MaxTD1= 6 Len=  172
 Calling FoFJK, ICntrl=      2127 FMM=F ISym2X=0 I1Cent= 0 IOpClX= 0 NMat=1 NMatS=1 NMatT=0.
 Defaulting to unpruned grid for atomic number  42.
 Defaulting to unpruned grid for atomic number  42.
 Defaulting to unpruned grid for atomic number  42.
 Defaulting to unpruned grid for atomic number  42.
 Defaulting to unpruned grid for atomic number  42.
 Defaulting to unpruned grid for atomic number  42.
 Defaulting to unpruned grid for atomic number  42.
 Defaulting to unpruned grid for atomic number  42.
 Defaulting to unpruned grid for atomic number  42.
 Defaulting to unpruned grid for atomic number  42.
 Defaulting to unpruned grid for atomic number  42.
 Defaulting to unpruned grid for atomic number  42.
 Defaulting to unpruned grid for atomic number  42.
 Defaulting to unpruned grid for atomic number  42.
 Defaulting to unpruned grid for atomic number  42.
 Defaulting to unpruned grid for atomic number  42.
 Defaulting to unpruned grid for atomic number  42.
 Defaulting to unpruned grid for atomic number  42.
 Defaulting to unpruned grid for atomic number  42.
 Defaulting to unpruned grid for atomic number  42.
 Defaulting to unpruned grid for atomic number  42.
 Defaulting to unpruned grid for atomic number  42.
 Defaulting to unpruned grid for atomic number  42.
 Defaulting to unpruned grid for atomic number  42.
 Defaulting to unpruned grid for atomic number  42.
 Defaulting to unpruned grid for atomic number  42.
 Defaulting to unpruned grid for atomic number  42.
 Defaulting to unpruned grid for atomic number  42.
 Defaulting to unpruned grid for atomic number  42.
 Defaulting to unpruned grid for atomic number  42.
 Defaulting to unpruned grid for atomic number  42.
 Defaulting to unpruned grid for atomic number  42.
 Defaulting to unpruned grid for atomic number  42.
 Defaulting to unpruned grid for atomic number  42.
 Defaulting to unpruned grid for atomic number  42.
 Defaulting to unpruned grid for atomic number  42.
 Defaulting to unpruned grid for atomic number  42.
 Defaulting to unpruned grid for atomic number  42.
 Defaulting to unpruned grid for atomic number  42.
 Defaulting to unpruned grid for atomic number  42.
[...]
 ,0.0644414,-0.3727877,0.363439,-0.140256,0.509604,-0.3931846,0.2977713
 ,-0.2962245,0.2858449,-0.4527745,0.8826329,-0.338596,0.3070607,-0.6492
 885,0.884384,-0.1148529,0.5746612,-0.261799,0.5528361,-0.5019971,-0.15
 59382,-0.3069712,-0.3000952,0.0092526,-0.0021059,-0.303921,0.0006803,-
 0.2382941,0.0057241,0.1005856,0.0459289,0.0150663,-0.0180866,-0.069015
 6,-0.0365199,-0.035217,0.077303,-0.3068231,0.4750481,0.0819558,0.56673
 01,-0.3675663,-0.1113065,0.1579393,-0.1727342,-0.1404085,-0.0125751,-0
 .1091967,0.0015404,0.0065043,0.0201073,-0.0373014,0.0144634,0.0195025,
 0.1000795\Polar=505.9967967,-66.8564546,360.8012282,-23.2790502,-18.38
 3829,277.6918821\Quadrupole=-10.9080377,7.6940967,3.213941,-5.5673232,
 -30.9975639,8.4914536\PG=C01 [X(H4Mo4S10)]\NImag=0\\0.25839586,-0.0288
 3443,0.26603946,-0.00623601,-0.00241921,0.23079327,-0.03671429,-0.0514
 4691,-0.01131200,0.11413447,-0.05158517,-0.06366833,-0.01855089,0.0185
 7571,0.10069712,-0.01250770,-0.01200475,-0.00920419,0.04667151,0.03126
 034,0.12471965,-0.03331958,0.00455316,0.04327977,-0.00443758,-0.003243
 18,0.00406145,0.05328192,-0.00133130,-0.00949463,-0.01005136,-0.000696
 88,-0.00017030,0.00131615,-0.01411248,0.03697172,0.04379892,-0.0099100
 2,-0.07323529,0.00137187,0.00175095,0.00214848,-0.02502406,-0.03325741
 ,0.17568894,-0.02839689,0.00997726,-0.04736930,-0.00006695,-0.00097115
 ,-0.00427905,0.00021778,0.00145984,0.00224664,0.10551351,0.01564821,-0
 .00969883,0.02311242,0.00051961,0.00190117,0.00179206,0.00091948,0.001
 56095,0.00399052,0.00760296,0.12173330,-0.05193305,0.01871365,-0.09928
 420,0.00035667,0.00346703,0.00106788,-0.00137205,0.00096148,-0.0035596
 1,0.02387573,0.03703776,0.16554505,-0.04201023,0.05212264,0.01471990,0
 .00059171,0.00251907,0.00147642,-0.00134145,-0.00137437,0.00083099,-0.
 00205970,0.00223067,0.00142547,0.07684417,0.05140755,-0.11376426,-0.03
 030499,0.00093270,-0.00203487,0.00047407,0.00407230,0.00107268,-0.0046
 6774,0.00314212,-0.00224358,0.00161115,-0.03259923,0.18509056,0.014152
 94,-0.03222408,-0.02064139,0.00190556,-0.00131728,-0.00079706,-0.00301
 714,0.00011920,0.00023373,-0.00033263,0.00115211,0.00125572,-0.0244400
 8,0.02797423,0.02490830,-0.05968442,0.01580359,-0.00126227,-0.00567469
 ,0.00172735,0.00028985,-0.01075037,0.00949085,-0.02285354,-0.03014409,
 0.02146251,0.03379029,-0.00056249,0.00516904,0.00433124,0.27492660,0.0
 3254062,-0.02039119,0.00688231,0.00071818,-0.00180998,-0.00223681,0.00
 293938,-0.03062501,0.03607111,0.02111475,-0.02433073,-0.03902512,0.002
 95314,0.00052722,-0.00204234,0.00603382,0.22649112,-0.01218709,0.00538
 514,0.00666712,-0.00201137,-0.00061311,-0.00146485,-0.01748687,0.03694
 184,-0.10420176,0.03464534,-0.03617890,-0.06185879,-0.00003671,-0.0006
 7820,0.00301519,0.00238136,0.02209921,0.23336857,0.00157967,-0.0006887
 6,-0.00279008,0.00000125,-0.00003650,0.00029278,-0.00211869,0.00625767
 ,-0.00412642,-0.00749008,0.00057506,-0.00106502,0.00001678,0.00002190,
 -0.00037464,-0.08925413,-0.00910042,-0.02390954,0.11227295,0.00096546,
 0.00136636,-0.00163443,0.00046873,0.00031799,-0.00009161,0.00090582,0.
 00335784,-0.00272874,0.00190050,0.00139363,0.00136675,-0.00006103,-0.0
 0021188,0.00025308,-0.02073298,-0.02755737,-0.01492748,-0.01057014,0.1
 3987325,-0.00001480,0.00243062,-0.00077477,0.00017671,0.00038594,-0.00
 004468,-0.00306087,-0.00059383,0.00121857,0.00294021,0.00033879,0.0033
 6894,-0.00022490,0.00039487,-0.00015508,-0.03483567,-0.01401927,-0.039
 90558,0.00436940,0.14216648,0.16942689,-0.00030299,0.00078034,-0.00016
 806,0.00027126,0.00019833,-0.00002923,-0.00006642,-0.00016384,-0.00024
 705,-0.00096217,-0.00013159,0.00063700,-0.00000286,0.00026244,0.000187
 92,-0.00502292,-0.01056283,-0.01161942,-0.01213220,0.03101534,0.032892
 95,0.01821873,-0.00057552,0.00023467,0.00046002,-0.00002388,0.00004182
 ,0.00002605,-0.00063027,-0.00053377,0.00092507,0.00038470,-0.00001706,
 0.00078624,-0.00018564,0.00046912,0.00004305,-0.00218854,-0.00048657,-
 0.00242063,0.02379642,-0.12347270,-0.12691769,-0.02251416,0.12426268,0
 .00052749,-0.00113920,-0.00020951,0.00014912,0.00003754,-0.00004007,0.
 00082353,-0.00013909,-0.00058582,0.00037513,0.00094636,0.00056585,0.00
 000370,-0.00003514,0.00019159,-0.00370537,-0.00306673,-0.00193328,0.02
 556928,-0.12709920,-0.13759871,-0.02256143,0.12884058,0.13896781,0.002
 83517,0.00162068,0.00055785,-0.00771462,0.00851730,-0.00208611,0.00217
 430,-0.00334383,0.00325448,0.00133255,-0.00266158,0.00000376,0.0000315
 6,-0.00082094,0.00000662,-0.01575544,-0.02398766,-0.00734458,-0.002173
 95,-0.00082888,-0.00238989,-0.00004417,-0.00036299,0.00054166,0.065302
 74,-0.00177542,-0.00435061,-0.00262363,0.00288298,-0.00104804,0.002449
 85,0.00432550,-0.00117491,0.00682160,0.00227813,-0.00509924,0.00007109
 ,0.00006296,-0.00023356,0.00026140,-0.03195533,-0.12601309,-0.01917638
 ,-0.00678607,0.00600182,-0.00073355,0.00147415,-0.00128016,0.00159523,
 -0.00764862,0.18668208,-0.00367398,-0.00176044,-0.00084179,-0.00201428
 ,0.00261375,0.00234302,-0.00135801,0.00678114,0.00363360,0.00283708,-0
 .00232809,0.00293975,0.00041302,0.00018377,-0.00028624,-0.00568649,-0.
 01663978,-0.01034742,0.00314291,-0.00192071,0.00041186,-0.00073303,-0.
 00013365,-0.00017022,-0.02875712,0.04403251,0.04835873,-0.00952222,0.0
 1019856,-0.00812531,-0.04163634,0.00951432,-0.04214864,-0.00123493,-0.
 00097819,-0.00093074,-0.03050800,-0.04743389,-0.00846770,-0.00033077,0
 .00040572,0.00055894,-0.06124987,-0.02788016,0.03158823,0.00044586,-0.
 00347687,0.00079955,-0.00016750,0.00247508,-0.00220869,-0.03656918,0.0
 4014543,0.03044998,0.21678980,-0.00607455,-0.04951829,0.02505749,0.014
 37181,-0.00544313,0.00614047,0.00126844,-0.00226699,0.00107702,-0.0438
 1372,-0.08589643,-0.02563137,0.00360603,-0.00060236,-0.00011008,-0.006
 03694,0.00789916,0.00860229,-0.00387883,-0.00015685,-0.00342387,-0.000
 02131,0.00060151,0.00041798,0.02970193,-0.05678845,-0.03256162,0.02587
 357,0.26789830,0.00050930,0.02650238,-0.01202755,-0.04646383,0.0065121
 8,-0.07536036,0.00249773,-0.00235481,-0.00314899,-0.01702801,-0.034449
 02,-0.01304122,0.00183947,-0.00034354,0.00127440,0.02944998,0.01461436
 ,-0.01989588,-0.00224991,0.00456554,0.00278444,0.00163882,-0.00169284,
 0.00122135,0.02938646,-0.03655930,-0.04026084,-0.01950664,-0.02240654,
 0.21113717,0.00210926,-0.00509025,0.00325769,0.00211672,-0.00167827,0.
 00003840,-0.00019236,0.00037910,-0.00005422,0.00123545,0.00202064,0.00
 021622,0.00028709,0.00011242,-0.00009140,0.00217340,0.00064541,0.00126
 059,-0.00036721,0.00082480,-0.00021379,0.00018420,-0.00042349,0.000525
 20,-0.00193525,-0.00425040,0.00063392,-0.02667039,-0.00882607,0.017911
 38,0.16535536,-0.00035548,-0.00166268,0.00224401,0.00221343,-0.0004326
 8,0.00238081,0.00001947,-0.00031137,0.00012974,-0.00115873,-0.00036638
 ,0.00022379,0.00049397,-0.00032471,-0.00094608,-0.00030893,0.00010638,
 0.00146244,0.00003170,-0.00047801,-0.00022706,-0.00018052,0.00000189,-
 0.00014822,-0.00067615,0.00158837,0.00166257,-0.02230178,-0.05788602,0
 .04139225,-0.10344559,0.18423489,0.00105910,0.00592482,-0.00192156,0.0
 0028636,-0.00024323,0.00108597,0.00023036,-0.00004752,0.00007519,0.001
 76951,0.00350925,0.00078974,-0.00067509,-0.00019373,0.00032764,-0.0031
 2244,0.00048460,-0.00073188,0.00081352,-0.00070396,0.00056694,-0.00012
 584,0.00042009,-0.00048044,0.00407638,0.00448992,-0.00144120,0.0247155
 8,0.03003619,-0.04735912,-0.06630984,-0.01144466,0.06828029,-0.0003477
 8,0.00037416,0.00003263,0.00001281,0.00011570,0.00020229,-0.00000580,-
 0.00025708,-0.00008569,-0.00018487,-0.00075930,-0.00055229,0.00001293,
 0.00011318,-0.00004304,0.00022571,0.00042726,0.00035495,-0.00002382,-0
 .00017845,-0.00019000,-0.00007910,0.00004755,-0.00009362,-0.00101998,-
 0.00153547,0.00192586,0.00172976,-0.00104864,0.00020812,-0.14200458,0.
 12120824,0.03908924,0.14085000,0.00000818,0.00081101,-0.00091044,-0.00
 007270,0.00008241,0.00040540,-0.00012762,-0.00000650,0.00001472,-0.000
 10604,-0.00041660,-0.00011539,-0.00014397,0.00013442,0.00013624,-0.000
 22082,0.00001724,-0.00056543,0.00014924,-0.00034496,0.00000722,-0.0000
 8347,0.00012150,-0.00017984,-0.00065499,0.00131515,0.00180410,0.004944
 33,-0.00774284,0.00018157,0.11495555,-0.11527949,-0.03180285,-0.119844
 37,0.12253953,-0.00025214,-0.00097423,0.00071487,0.00008032,-0.0007374
 4,-0.00029927,-0.00014451,0.00012877,-0.00011771,0.00043767,-0.0004635
 9,-0.00028850,-0.00010439,0.00010995,0.00001662,0.00120937,0.00011708,
 -0.00026161,-0.00025833,0.00044477,0.00001760,0.00013861,-0.00020960,0
 .00020547,0.00010718,0.00000739,-0.00231414,-0.00576458,0.00823703,0.0
 0002243,0.04384736,-0.03686126,-0.02025299,-0.04097213,0.03010794,0.02
 186569,-0.00174549,0.00314185,0.00655502,-0.00007741,-0.00058037,0.000
 86675,0.00146246,-0.00109537,-0.00004657,-0.00570322,0.00118938,0.0033
 6432,0.00619157,0.00073118,-0.00025484,-0.00053731,0.00231279,0.000271
 71,-0.00037151,-0.00016055,-0.00040269,-0.00000241,0.00012029,0.000033
 12,-0.00575709,0.00302528,0.00228945,-0.00436111,-0.00727378,0.0015610
 8,-0.00249086,0.00374213,-0.00105247,0.00067718,0.00139642,0.00100592,
 0.03940019,0.00041480,-0.00396714,-0.00353235,0.00018459,0.00280542,-0
 .00282087,-0.00182357,0.00112584,0.00037835,-0.00132183,-0.00158003,0.
 00107538,-0.00236925,0.00053273,0.00343385,0.00141492,0.00006518,-0.00
 191375,0.00038100,0.00016222,0.00055279,0.00001499,-0.00016092,0.00002
 497,0.00329603,-0.00054221,-0.00109691,-0.00954716,-0.00026157,0.00994
 269,0.00539393,-0.00820873,-0.00068928,0.00127936,-0.00170729,-0.00061
 737,-0.02090703,0.06497964,-0.00027109,0.00261000,-0.00241066,0.001673
 27,-0.00075254,-0.01168822,0.00074828,-0.00057904,-0.00034582,0.002655
 50,0.00124408,0.00137062,0.00591930,0.00391725,0.00030507,-0.00019700,
 0.00075710,0.00054130,-0.00000349,-0.00018511,-0.00026143,-0.00000422,
 0.00012727,-0.00004865,-0.00023829,-0.00035379,-0.00062644,0.01622280,
 -0.00411420,-0.02161642,-0.00166146,-0.00138491,0.00220205,-0.00056049
 ,0.00154246,0.00076728,0.00961305,-0.06824126,0.16142090,-0.05068806,-
 0.01223309,0.00728924,0.00138910,0.01095554,0.00791312,-0.00465748,0.0
 0706623,0.00218700,-0.00370417,-0.00196706,-0.00083363,-0.02214548,-0.
 03372709,-0.00287254,0.00154557,0.00065415,0.00427508,0.00009225,0.000
 14730,0.00054338,0.00012478,-0.00000017,0.00002358,0.00093163,-0.00064
 928,0.00038968,-0.01072039,0.00305139,0.00017921,0.00034513,0.00105025
 ,-0.00057822,0.00018407,-0.00069159,0.00042306,-0.02003176,0.00944611,
 -0.02335329,0.22539221,-0.01147138,0.01032241,0.01213903,0.00292137,-0
 .03265910,-0.03067554,0.00132829,0.00062148,-0.00083129,-0.00106075,0.
 00315434,-0.00073543,-0.02434406,-0.07545400,0.00435114,-0.00014066,-0
 .00337575,0.00173046,-0.00029116,-0.00034437,-0.00064187,-0.00014973,0
 .00023305,-0.00001277,-0.00372940,0.00091025,-0.00024830,0.02141145,-0
 .01183798,-0.00501745,-0.00087612,-0.00082716,0.00019247,0.00026336,0.
 00063322,0.00081335,0.00483137,-0.05163228,0.06480744,0.01043288,0.242
 50521,0.02566648,0.00182564,-0.01726327,0.00648938,-0.02418839,-0.0369
 1118,0.00031259,0.00067391,0.00189048,-0.00289195,0.00019992,0.0009044
 8,-0.00270065,0.00413381,-0.01183505,0.00067904,-0.00405180,-0.0033586
 3,0.00060662,0.00053669,0.00099283,0.00000445,-0.00024593,-0.00007017,
 0.00306019,-0.00036572,-0.00133784,-0.01850986,0.00894586,0.01646211,0
 .00031576,0.00183239,-0.00100698,0.00093522,-0.00046405,0.00001069,-0.
 01834804,0.06054322,-0.13140877,0.01218992,-0.01399235,0.24045455,-0.0
 0126892,-0.00231014,-0.00159229,-0.01239083,0.00022646,-0.00479199,0.0
 0031701,-0.00035724,0.00061589,0.00045461,0.00021050,0.00030020,-0.003
 59374,-0.00293465,0.00405300,-0.00038547,0.00019314,-0.00035071,-0.000
 08345,-0.00004051,-0.00017397,-0.00003354,-0.00001739,0.00000876,-0.00
 029346,0.00019194,0.00016108,-0.00008718,-0.00034143,0.00045148,0.0002
 4185,-0.00023910,-0.00025368,-0.00008099,0.00020069,0.00020612,-0.0003
 0635,0.00611260,-0.00653374,-0.06941657,-0.00774606,-0.01792485,0.1276
 1636,-0.00037146,0.00007778,0.00228261,0.00382066,0.00130462,0.0006655
 7,-0.00048904,0.00020657,-0.00002502,0.00023887,0.00013150,-0.00003096
 ,-0.00030490,0.00206380,-0.00121199,0.00017273,-0.00017278,0.00038733,
 -0.00018247,-0.00006838,-0.00001362,0.00002467,0.00003469,-0.00001803,
 0.00023487,0.00005301,0.00011107,-0.00002137,-0.00027039,-0.00063708,0
 .00007917,0.00018452,-0.00007253,-0.00011431,0.00000123,-0.00004557,0.
 00232430,0.00452813,-0.00116318,-0.02359101,-0.02800184,-0.01657428,-0
 .05682555,0.20214265,-0.00027564,-0.00203974,-0.00023348,0.00324893,-0
 .00208851,0.00227383,0.00004126,-0.00022644,0.00026181,0.00016142,0.00
 018808,0.00054572,-0.00386179,-0.00239950,0.00288005,-0.00035232,0.000
 18652,-0.00003667,-0.00010898,-0.00006773,-0.00004316,-0.00000091,0.00
 001779,-0.00001140,0.00001853,0.00003724,0.00017788,0.00042533,-0.0003
 0109,-0.00113997,0.00023148,-0.00026434,-0.00007405,-0.00022696,-0.000
 14231,-0.00012064,-0.00306479,0.00138428,-0.00188163,-0.02779238,-0.00
 677884,-0.02694431,-0.01067509,0.12016548,0.09443086,0.00049459,-0.000
 97930,0.00031581,-0.00359433,-0.00043514,-0.00067055,-0.00004460,0.000
 04463,-0.00011480,0.00004911,0.00003138,0.00014040,-0.00039223,0.00017
 828,-0.00009667,-0.00009904,0.00010441,0.00012263,-0.00003779,-0.00001
 504,0.00001598,0.00000621,0.00001548,-0.00000598,0.00006949,-0.0000148
 1,-0.00007049,-0.00007927,0.00041214,-0.00010835,0.00005129,-0.0000461
 1,0.00001007,-0.00006370,-0.00004125,-0.00002436,-0.00000524,0.0005617
 6,0.00012666,0.00088334,-0.00938941,-0.00635522,-0.04495727,0.07603002
 ,0.04260529,0.04752801,0.00110399,0.00047185,-0.00070315,0.00041249,0.
 00042341,0.00153318,0.00000828,-0.00005034,0.00007274,0.00001510,0.000
 05707,0.00005393,0.00011646,-0.00039739,-0.00030709,-0.00008417,0.0000
 4656,-0.00005214,0.00000955,-0.00000196,0.00002105,0.00000294,0.000004
 30,-0.00001148,0.00001617,0.00000914,0.00002244,0.00026522,0.00025414,
 -0.00048937,-0.00012804,-0.00018925,0.00004722,-0.00002661,0.00002327,
 0.00000441,-0.00058752,0.00069134,0.00000335,0.00110339,-0.00427370,-0
 .00082504,0.06589896,-0.17260760,-0.09797313,-0.06668986,0.17634052,0.
 00042456,-0.00029922,0.00060470,-0.00085741,0.00174183,0.00072509,-0.0
 0044369,0.00026016,0.00004084,0.00012977,0.00003784,-0.00015445,0.0002
 3332,0.00099933,-0.00012044,0.00025779,-0.00015529,0.00032175,-0.00005
 143,-0.00001009,0.00001356,0.00001287,0.00000548,-0.00000463,0.0000696
 9,0.00004141,-0.00001442,-0.00024957,-0.00021430,0.00011243,0.00002001
 ,0.00016554,-0.00009653,0.00006768,0.00000939,0.00000643,0.00064073,-0
 .00075575,0.00011701,-0.00089907,-0.00593094,-0.00559263,0.03704964,-0
 .09600638,-0.06191751,-0.03555585,0.10043831,0.06491840,0.00032933,0.0
 0257606,0.00207164,-0.00602368,0.00711998,0.00550253,0.00068255,-0.001
 07378,-0.00069884,0.00052307,0.00060600,0.00015311,-0.01008179,0.00260
 006,0.00511373,0.00029510,0.00067419,0.00008863,-0.00031679,-0.0001246
 6,-0.00021388,0.00001021,0.00006004,-0.00001507,-0.00124605,0.00027974
 ,-0.00004470,0.00373122,-0.00038836,-0.00046270,-0.00037145,-0.0001260
 4,0.00007008,0.00009560,0.00031972,0.00006036,-0.00624527,0.00737954,-
 0.00424389,-0.05277221,0.00757705,0.01425148,0.00407775,-0.00109996,-0
 .00079833,-0.00003830,-0.00133377,-0.00062931,0.15049770,0.00063025,-0
 .00192693,-0.00222267,0.00432484,-0.00102546,-0.00099323,-0.00006526,0
 .00002415,0.00046808,0.00004374,-0.00040161,0.00012919,-0.00278348,0.0
 0322138,-0.00000997,0.00038403,-0.00064571,-0.00019669,0.00029941,0.00
 013399,0.00028799,0.00002600,-0.00004006,-0.00001813,0.00140071,-0.000
 07359,-0.00050855,-0.00356264,0.00163353,0.00067211,0.00029823,-0.0000
 5525,0.00006540,-0.00003949,-0.00020182,-0.00005762,0.00807493,-0.0070
 1896,0.00207104,0.02904169,-0.04072096,-0.01522838,-0.00276510,-0.0087
 4155,-0.00953387,0.00029346,-0.00130113,-0.00017916,0.08276527,0.24474
 159,0.00222370,-0.00232621,-0.00077971,0.00105041,0.00142918,0.0012305
 3,-0.00035079,0.00040664,-0.00036192,0.00027215,-0.00013350,-0.0003509
 4,0.00527202,-0.00130308,0.00097562,-0.00011930,0.00001765,0.00076456,
 0.00018035,0.00012240,-0.00002736,-0.00000673,-0.00006752,0.00002873,-
 0.00008388,0.00000158,-0.00017288,-0.00007983,0.00123955,0.00070364,0.
 00035970,-0.00039904,0.00006875,-0.00025723,-0.00015225,-0.00004308,-0
 .00217966,0.00148354,0.00352277,0.01875225,-0.01274403,-0.02387033,-0.
 00067108,-0.00769016,-0.00872279,-0.00081126,-0.00113024,0.00150019,-0
 .00984527,0.04664622,0.03395995,-0.00174300,0.00043458,0.00077578,-0.0
 0018660,-0.00093996,-0.00080182,0.00003327,0.00008604,-0.00012385,-0.0
 0010593,-0.00006296,-0.00003944,-0.00145506,0.00093301,0.00121302,-0.0
 0004612,0.00021981,-0.00004223,-0.00003916,-0.00003884,-0.00001770,0.0
 0000087,0.00002249,0.00000958,-0.00016824,-0.00005071,0.00009513,0.000
 44052,-0.00058169,0.00018642,-0.00006766,0.00007924,-0.00000263,0.0000
 2256,0.00001268,0.00000447,-0.00009639,0.00008921,0.00010808,0.0032480
 3,0.01043296,0.00221943,0.00019020,0.00007478,0.00042498,0.00022973,-0
 .00010258,-0.00021976,-0.08314698,-0.11836658,-0.01370552,0.08288999,-
 0.00034432,-0.00088066,0.00077522,-0.00010674,0.00071791,0.00037885,0.
 00015130,-0.00030740,-0.00027966,0.00027423,0.00011853,0.00004082,0.00
 006100,0.00215469,0.00044462,0.00000955,0.00025532,0.00011400,0.000012
 40,0.00002939,-0.00001499,0.00000825,-0.00001399,0.00000514,-0.0000726
 4,0.00004403,-0.00001329,-0.00003162,0.00038464,-0.00043313,0.00000900
 ,-0.00009433,0.00002779,-0.00002511,0.00002054,-0.00000402,-0.00028531
 ,0.00018862,-0.00030599,-0.00008964,-0.00925284,-0.00275551,0.00054288
 ,-0.00086598,-0.00016388,-0.00006065,0.00049977,-0.00014816,-0.1078110
 9,-0.18760162,-0.02540073,0.10775851,0.19460337,-0.00101098,0.00170486
 ,0.00004741,-0.00080123,-0.00070737,0.00021544,0.00026302,-0.00033980,
 0.00036529,-0.00044521,0.00000391,0.00018395,-0.00008999,0.00012750,-0
 .00154867,-0.00025452,0.00000720,-0.00068214,-0.00003702,-0.00008666,0
 .00000915,-0.00001671,0.00003622,-0.00002790,-0.00018293,0.00000317,-0
 .00005143,0.00123115,-0.00099082,0.00013239,-0.00028700,0.00018204,-0.
 00003180,0.00016545,0.00012351,0.00007085,-0.00085207,0.00084847,0.000
 04103,0.00216360,-0.00642511,-0.00111598,0.00012123,-0.00012326,0.0005
 5547,0.00047668,-0.00070500,-0.00045979,-0.01035957,-0.02139176,-0.008
 42573,0.00991607,0.02773292,0.01072245\\0.00001966,0.00000152,-0.00005
 003,0.00000920,0.00002118,0.00000023,-0.00001658,0.00000126,0.00000919
 ,-0.00001657,-0.00002026,0.00001577,-0.00003823,-0.00007090,-0.0000069
 4,-0.00002835,-0.00000082,-0.00000356,0.00000649,-0.00001062,0.0000388
 0,0.00000717,-0.00002000,-0.00001936,-0.00000281,0.00006587,0.00001744
 ,0.00000301,-0.00001942,-0.00002783,-0.00005811,0.00008691,0.00003514,
 0.00007520,-0.00006246,-0.00003113,0.00000824,-0.00001865,0.00010382,-
 0.00001740,0.00003789,-0.00010027,-0.00004782,0.00016368,0.00007604,0.
 00006678,-0.00013287,-0.00007898,0.00009181,0.00011232,0.00004724,-0.0
 0006169,-0.00013461,-0.00002556\\\@
 The archive entry for this job was punched.


 THE ENLIGHTENED ONE, BECAUSE HE SAW MANKIND DROWNING  
 IN THE GREAT SEA OF BIRTH, DEATH, AND SORROW, LONGED TO SAVE 
 THEM, FOR THIS HE WAS MOVED TO PITY.                         
 BECAUSE HE SAW MEN OF THE WORLD STRAYING IN FALSE PATHS, AND 
 NONE TO GUIDE THEM, FOR THIS HE WAS MOVED TO PITY.           
                     ..................                       
 BECAUSE HE SAW THE MEN OF THE WORLD PLOUGHING THEIR FIELDS,  
 SOWING THE SEED, TRAFFICKING, HUCKSTERING, BUYING, SELLING,  
 AND AT THE END WINNOWING NOTHING BUT BITTERNESS,             
 FOR THIS HE WAS MOVED TO PITY......                   
                   BUDAH'S PITY - UPSAKA SILA SUTRA           
 Job cpu time:       0 days  1 hours 12 minutes 16.1 seconds.
 Elapsed time:       0 days  0 hours  2 minutes  4.3 seconds.
 File lengths (MBytes):  RWF=    302 Int=      0 D2E=      0 Chk=      9 Scr=      2
 Normal termination of Gaussian 16 at Tue Nov  1 11:40:52 2022.
