 Entering Gaussian System, Link 0=g16
 Initial command:
 /home/chesagar/softwares/G16_AVX2//g16/l1.exe "/home/chesagar/scratch/Gau-115306.inp" -scrdir="/home/chesagar/scratch/"
 Entering Link 1 = /home/chesagar/softwares/G16_AVX2//g16/l1.exe PID=    115308.
  
 Copyright (c) 1988-2019, Gaussian, Inc.  All Rights Reserved.
  
 This is part of the Gaussian(R) 16 program.  It is based on
 the Gaussian(R) 09 system (copyright 2009, Gaussian, Inc.),
 the Gaussian(R) 03 system (copyright 2003, Gaussian, Inc.),
 the Gaussian(R) 98 system (copyright 1998, Gaussian, Inc.),
 the Gaussian(R) 94 system (copyright 1995, Gaussian, Inc.),
 the Gaussian 92(TM) system (copyright 1992, Gaussian, Inc.),
 the Gaussian 90(TM) system (copyright 1990, Gaussian, Inc.),
 the Gaussian 88(TM) system (copyright 1988, Gaussian, Inc.),
 the Gaussian 86(TM) system (copyright 1986, Carnegie Mellon
 University), and the Gaussian 82(TM) system (copyright 1983,
 Carnegie Mellon University). Gaussian is a federally registered
 trademark of Gaussian, Inc.
  
 This software contains proprietary and confidential information,
 including trade secrets, belonging to Gaussian, Inc.
  
 This software is provided under written license and may be
 used, copied, transmitted, or stored only in accord with that
 written license.
  
 The following legend is applicable only to US Government
 contracts under FAR:
  
                    RESTRICTED RIGHTS LEGEND
  
 Use, reproduction and disclosure by the US Government is
 subject to restrictions as set forth in subparagraphs (a)
 and (c) of the Commercial Computer Software - Restricted
 Rights clause in FAR 52.227-19.
  
 Gaussian, Inc.
 340 Quinnipiac St., Bldg. 40, Wallingford CT 06492
  
  
 ---------------------------------------------------------------
 Warning -- This program may not be used in any manner that
 competes with the business of Gaussian, Inc. or will provide
 assistance to any competitor of Gaussian, Inc.  The licensee
 of this program is prohibited from giving any competitor of
 Gaussian, Inc. access to this program.  By using this program,
 the user acknowledges that Gaussian, Inc. is engaged in the
 business of creating and licensing software in the field of
 computational chemistry and represents and warrants to the
 licensee that it is not a competitor of Gaussian, Inc. and that
 it will not use this program in any manner prohibited above.
 ---------------------------------------------------------------
  

 Cite this work as:
 Gaussian 16, Revision C.01,
 M. J. Frisch, G. W. Trucks, H. B. Schlegel, G. E. Scuseria, 
 M. A. Robb, J. R. Cheeseman, G. Scalmani, V. Barone, 
 G. A. Petersson, H. Nakatsuji, X. Li, M. Caricato, A. V. Marenich, 
 J. Bloino, B. G. Janesko, R. Gomperts, B. Mennucci, H. P. Hratchian, 
 J. V. Ortiz, A. F. Izmaylov, J. L. Sonnenberg, D. Williams-Young, 
 F. Ding, F. Lipparini, F. Egidi, J. Goings, B. Peng, A. Petrone, 
 T. Henderson, D. Ranasinghe, V. G. Zakrzewski, J. Gao, N. Rega, 
 G. Zheng, W. Liang, M. Hada, M. Ehara, K. Toyota, R. Fukuda, 
 J. Hasegawa, M. Ishida, T. Nakajima, Y. Honda, O. Kitao, H. Nakai, 
 T. Vreven, K. Throssell, J. A. Montgomery, Jr., J. E. Peralta, 
 F. Ogliaro, M. J. Bearpark, J. J. Heyd, E. N. Brothers, K. N. Kudin, 
 V. N. Staroverov, T. A. Keith, R. Kobayashi, J. Normand, 
 K. Raghavachari, A. P. Rendell, J. C. Burant, S. S. Iyengar, 
 J. Tomasi, M. Cossi, J. M. Millam, M. Klene, C. Adamo, R. Cammi, 
 J. W. Ochterski, R. L. Martin, K. Morokuma, O. Farkas, 
 J. B. Foresman, and D. J. Fox, Gaussian, Inc., Wallingford CT, 2019.
 
 ******************************************
 Gaussian 16:  ES64L-G16RevC.01  3-Jul-2019
                10-Dec-2022 
 ******************************************
 %nprocshared=46
 Will use up to   46 processors via shared memory.
 %mem=100GB
 ---------------------------------------
 # opt freq b3lyp/gen nosymm pseudo=read
 ---------------------------------------
 1/18=20,19=15,26=3,38=1/1,3;
 2/9=110,12=2,15=1,17=6,18=5,40=1/2;
 3/5=7,11=2,16=1,17=8,25=1,30=1,71=1,74=-5/1,2,3;
 4//1;
 5/5=2,38=5/2;
 6/7=2,8=2,9=2,10=2,28=1/1;
 7/30=1/1,2,3,16;
 1/18=20,19=15,26=3/3(2);
 2/9=110,15=1/2;
 99//99;
 2/9=110,15=1/2;
 3/5=7,6=1,11=2,16=1,17=8,25=1,30=1,71=1,74=-5,82=7/1,2,3;
 4/5=5,16=3,69=1/1;
 5/5=2,38=5/2;
 7/30=1/1,2,3,16;
 1/18=20,19=15,26=3/3(-5);
 2/9=110,15=1/2;
 6/7=2,8=2,9=2,10=2,19=2,28=1/1;
 99/9=1/99;
 -------------------
 Title Card Required
 -------------------
 Symbolic Z-matrix:
 Charge =  0 Multiplicity = 1
 42                    0.281     2.42011   12.25657 
 16                    1.24972   4.26855   11.63379 
 16                   -1.67506   2.93004   13.31581 
 16                   -0.4674    1.32147   10.2652 
 16                    1.88829   0.31791   12.03573 
 42                   -2.24482   2.77839   11.00465 
 16                   -3.25365   1.63314   8.93341 
 16                   -1.60158   4.92773   10.39831 
 42                    0.18658   3.52819   9.44128 
 16                   -0.57934   2.65925   7.21063 
 16                    2.44588   2.33846   8.99414 
 42                    3.53752   1.47235   10.75205 
 42                   -2.34479   3.85693   8.42029 
 16                    4.51468   2.92479   12.29647 
 16                    4.99561   0.08558   10.13269 
 16                   -4.61257   4.91373   8.62857 
 16                   -1.90629   6.0376    7.21092 
 42                   -4.93743   2.98979   9.71952 
 16                   -6.87041   2.19305   9.36952 
 16                   -4.48418   3.35256   11.89441 
 42                    3.1644    1.53448   13.57737 
 16                    4.30167   0.2395    14.7935 
 16                    1.33214   2.47481   14.53923 
 42                   -0.01112   4.88202   6.95752 
 16                    1.5246    5.30742   5.42431 
 16                    1.3556    5.619     8.61591 
 

 GradGradGradGradGradGradGradGradGradGradGradGradGradGradGradGradGradGrad
 Berny optimization.
 Initialization pass.
                           ----------------------------
                           !    Initial Parameters    !
                           ! (Angstroms and Degrees)  !
 --------------------------                            --------------------------
 ! Name  Definition              Value          Derivative Info.                !
 --------------------------------------------------------------------------------
 ! R1    R(1,2)                  2.1778         estimate D2E/DX2                !
 ! R2    R(1,3)                  2.2821         estimate D2E/DX2                !
 ! R3    R(1,4)                  2.3943         estimate D2E/DX2                !
 ! R4    R(1,5)                  2.6554         estimate D2E/DX2                !
 ! R5    R(1,6)                  2.8417         estimate D2E/DX2                !
 ! R6    R(1,9)                  3.027          estimate D2E/DX2                !
 ! R7    R(1,23)                 2.5137         estimate D2E/DX2                !
 ! R8    R(2,9)                  2.5467         estimate D2E/DX2                !
 ! R9    R(3,6)                  2.3852         estimate D2E/DX2                !
 ! R10   R(4,6)                  2.4143         estimate D2E/DX2                !
 ! R11   R(4,9)                  2.4446         estimate D2E/DX2                !
 ! R12   R(5,12)                 2.3876         estimate D2E/DX2                !
 ! R13   R(5,21)                 2.342          estimate D2E/DX2                !
 ! R14   R(6,7)                  2.5728         estimate D2E/DX2                !
 ! R15   R(6,8)                  2.324          estimate D2E/DX2                !
 ! R16   R(6,9)                  2.9863         estimate D2E/DX2                !
 ! R17   R(6,13)                 2.8022         estimate D2E/DX2                !
 ! R18   R(6,18)                 2.9911         estimate D2E/DX2                !
 ! R19   R(6,20)                 2.4771         estimate D2E/DX2                !
 ! R20   R(7,13)                 2.4565         estimate D2E/DX2                !
 ! R21   R(7,18)                 2.3008         estimate D2E/DX2                !
 ! R22   R(8,9)                  2.4642         estimate D2E/DX2                !
 ! R23   R(8,13)                 2.3689         estimate D2E/DX2                !
 ! R24   R(9,10)                 2.5135         estimate D2E/DX2                !
 ! R25   R(9,11)                 2.5923         estimate D2E/DX2                !
 ! R26   R(9,13)                 2.7492         estimate D2E/DX2                !
 ! R27   R(9,24)                 2.8357         estimate D2E/DX2                !
 ! R28   R(9,26)                 2.5336         estimate D2E/DX2                !
 ! R29   R(10,13)                2.4525         estimate D2E/DX2                !
 ! R30   R(10,24)                2.3082         estimate D2E/DX2                !
 ! R31   R(11,12)                2.2432         estimate D2E/DX2                !
 ! R32   R(12,14)                2.3345         estimate D2E/DX2                !
 ! R33   R(12,15)                2.1054         estimate D2E/DX2                !
 ! R34   R(12,21)                2.8505         estimate D2E/DX2                !
 ! R35   R(13,16)                2.5106         estimate D2E/DX2                !
 ! R36   R(13,17)                2.5318         estimate D2E/DX2                !
 ! R37   R(13,18)                3.0268         estimate D2E/DX2                !
 ! R38   R(13,24)                2.9388         estimate D2E/DX2                !
 ! R39   R(14,21)                2.3231         estimate D2E/DX2                !
 ! R40   R(16,18)                2.2355         estimate D2E/DX2                !
 ! R41   R(17,24)                2.2341         estimate D2E/DX2                !
 ! R42   R(18,19)                2.1198         estimate D2E/DX2                !
 ! R43   R(18,20)                2.251          estimate D2E/DX2                !
 ! R44   R(21,22)                2.1093         estimate D2E/DX2                !
 ! R45   R(21,23)                2.273          estimate D2E/DX2                !
 ! R46   R(24,25)                2.2114         estimate D2E/DX2                !
 ! R47   R(24,26)                2.2719         estimate D2E/DX2                !
 ! A1    A(2,1,3)              108.925          estimate D2E/DX2                !
 ! A2    A(2,1,4)              106.897          estimate D2E/DX2                !
 ! A3    A(2,1,5)              112.2657         estimate D2E/DX2                !
 ! A4    A(2,1,6)               99.3444         estimate D2E/DX2                !
 ! A5    A(2,1,23)              93.1649         estimate D2E/DX2                !
 ! A6    A(3,1,4)              102.7473         estimate D2E/DX2                !
 ! A7    A(3,1,5)              137.2468         estimate D2E/DX2                !
 ! A8    A(3,1,9)              108.8539         estimate D2E/DX2                !
 ! A9    A(3,1,23)              86.1048         estimate D2E/DX2                !
 ! A10   A(4,1,5)               75.9226         estimate D2E/DX2                !
 ! A11   A(4,1,23)             153.6343         estimate D2E/DX2                !
 ! A12   A(5,1,6)              126.9533         estimate D2E/DX2                !
 ! A13   A(5,1,9)              103.3754         estimate D2E/DX2                !
 ! A14   A(5,1,23)              80.7719         estimate D2E/DX2                !
 ! A15   A(6,1,23)             140.265          estimate D2E/DX2                !
 ! A16   A(9,1,23)             148.1764         estimate D2E/DX2                !
 ! A17   A(1,5,12)              94.5906         estimate D2E/DX2                !
 ! A18   A(1,5,21)              82.174          estimate D2E/DX2                !
 ! A19   A(1,6,7)              130.3207         estimate D2E/DX2                !
 ! A20   A(1,6,8)               89.171          estimate D2E/DX2                !
 ! A21   A(1,6,13)             119.1137         estimate D2E/DX2                !
 ! A22   A(1,6,20)             132.4156         estimate D2E/DX2                !
 ! A23   A(3,6,4)               99.1655         estimate D2E/DX2                !
 ! A24   A(3,6,7)              154.4265         estimate D2E/DX2                !
 ! A25   A(3,6,8)               97.3475         estimate D2E/DX2                !
 ! A26   A(3,6,9)              107.2664         estimate D2E/DX2                !
 ! A27   A(3,6,13)             151.3661         estimate D2E/DX2                !
 ! A28   A(3,6,18)             128.8194         estimate D2E/DX2                !
 ! A29   A(3,6,20)              81.5563         estimate D2E/DX2                !
 ! A30   A(4,6,7)               76.9079         estimate D2E/DX2                !
 ! A31   A(4,6,8)              105.9281         estimate D2E/DX2                !
 ! A32   A(4,6,13)              88.6284         estimate D2E/DX2                !
 ! A33   A(4,6,18)             125.0166         estimate D2E/DX2                !
 ! A34   A(4,6,20)             156.2697         estimate D2E/DX2                !
 ! A35   A(7,6,8)              108.0694         estimate D2E/DX2                !
 ! A36   A(7,6,9)               90.5481         estimate D2E/DX2                !
 ! A37   A(7,6,20)              92.1701         estimate D2E/DX2                !
 ! A38   A(8,6,18)              94.1117         estimate D2E/DX2                !
 ! A39   A(8,6,20)              97.444          estimate D2E/DX2                !
 ! A40   A(9,6,18)             119.3584         estimate D2E/DX2                !
 ! A41   A(9,6,20)             149.9835         estimate D2E/DX2                !
 ! A42   A(13,6,20)            102.1108         estimate D2E/DX2                !
 ! A43   A(1,9,8)               82.4916         estimate D2E/DX2                !
 ! A44   A(1,9,10)             135.102          estimate D2E/DX2                !
 ! A45   A(1,9,11)              88.0077         estimate D2E/DX2                !
 ! A46   A(1,9,13)             114.7015         estimate D2E/DX2                !
 ! A47   A(1,9,26)             126.2052         estimate D2E/DX2                !
 ! A48   A(2,9,4)               94.8154         estimate D2E/DX2                !
 ! A49   A(2,9,6)               87.8323         estimate D2E/DX2                !
 ! A50   A(2,9,8)               78.665          estimate D2E/DX2                !
 ! A51   A(2,9,11)              85.3018         estimate D2E/DX2                !
 ! A52   A(2,9,13)             132.0163         estimate D2E/DX2                !
 ! A53   A(2,9,24)             130.1208         estimate D2E/DX2                !
 ! A54   A(2,9,26)              81.2536         estimate D2E/DX2                !
 ! A55   A(4,9,8)              100.8163         estimate D2E/DX2                !
 ! A56   A(4,9,10)              84.5785         estimate D2E/DX2                !
 ! A57   A(4,9,11)              82.9347         estimate D2E/DX2                !
 ! A58   A(4,9,13)              89.2427         estimate D2E/DX2                !
 ! A59   A(4,9,24)             135.0337         estimate D2E/DX2                !
 ! A60   A(6,9,10)              97.4522         estimate D2E/DX2                !
 ! A61   A(6,9,11)             133.2097         estimate D2E/DX2                !
 ! A62   A(6,9,24)             121.4431         estimate D2E/DX2                !
 ! A63   A(6,9,26)             138.886          estimate D2E/DX2                !
 ! A64   A(8,9,10)             108.6567         estimate D2E/DX2                !
 ! A65   A(8,9,11)             163.7633         estimate D2E/DX2                !
 ! A66   A(8,9,24)              91.056          estimate D2E/DX2                !
 ! A67   A(8,9,26)              89.5791         estimate D2E/DX2                !
 ! A68   A(10,9,11)             87.3541         estimate D2E/DX2                !
 ! A69   A(10,9,26)             97.8616         estimate D2E/DX2                !
 ! A70   A(11,9,13)            142.4956         estimate D2E/DX2                !
 ! A71   A(11,9,24)             97.4            estimate D2E/DX2                !
 ! A72   A(11,9,26)             85.4352         estimate D2E/DX2                !
 ! A73   A(13,9,26)            101.84           estimate D2E/DX2                !
 ! A74   A(9,11,12)            117.7853         estimate D2E/DX2                !
 ! A75   A(5,12,11)            105.7756         estimate D2E/DX2                !
 ! A76   A(5,12,14)            103.5488         estimate D2E/DX2                !
 ! A77   A(5,12,15)            108.546          estimate D2E/DX2                !
 ! A78   A(11,12,14)           118.8111         estimate D2E/DX2                !
 ! A79   A(11,12,15)           111.1493         estimate D2E/DX2                !
 ! A80   A(11,12,21)           134.798          estimate D2E/DX2                !
 ! A81   A(14,12,15)           108.3329         estimate D2E/DX2                !
 ! A82   A(15,12,21)           113.3645         estimate D2E/DX2                !
 ! A83   A(6,13,10)            103.9606         estimate D2E/DX2                !
 ! A84   A(6,13,16)             96.7615         estimate D2E/DX2                !
 ! A85   A(6,13,17)            139.9845         estimate D2E/DX2                !
 ! A86   A(6,13,24)            124.4009         estimate D2E/DX2                !
 ! A87   A(7,13,8)             110.5402         estimate D2E/DX2                !
 ! A88   A(7,13,9)              98.9074         estimate D2E/DX2                !
 ! A89   A(7,13,10)             85.8293         estimate D2E/DX2                !
 ! A90   A(7,13,16)             91.6925         estimate D2E/DX2                !
 ! A91   A(7,13,17)            160.6565         estimate D2E/DX2                !
 ! A92   A(7,13,24)            135.5224         estimate D2E/DX2                !
 ! A93   A(8,13,10)            114.0017         estimate D2E/DX2                !
 ! A94   A(8,13,16)             91.3668         estimate D2E/DX2                !
 ! A95   A(8,13,17)             87.4313         estimate D2E/DX2                !
 ! A96   A(8,13,18)             92.2822         estimate D2E/DX2                !
 ! A97   A(8,13,24)             90.5046         estimate D2E/DX2                !
 ! A98   A(9,13,16)            148.3458         estimate D2E/DX2                !
 ! A99   A(9,13,17)             96.9446         estimate D2E/DX2                !
 ! A100  A(9,13,18)            126.5133         estimate D2E/DX2                !
 ! A101  A(10,13,16)           153.7324         estimate D2E/DX2                !
 ! A102  A(10,13,17)            93.4592         estimate D2E/DX2                !
 ! A103  A(10,13,18)           133.5049         estimate D2E/DX2                !
 ! A104  A(16,13,17)            80.4167         estimate D2E/DX2                !
 ! A105  A(16,13,24)           127.7166         estimate D2E/DX2                !
 ! A106  A(17,13,18)           126.8796         estimate D2E/DX2                !
 ! A107  A(6,18,16)             98.0298         estimate D2E/DX2                !
 ! A108  A(6,18,19)            149.9112         estimate D2E/DX2                !
 ! A109  A(7,18,16)            103.5553         estimate D2E/DX2                !
 ! A110  A(7,18,19)            112.9106         estimate D2E/DX2                !
 ! A111  A(7,18,20)            106.128          estimate D2E/DX2                !
 ! A112  A(13,18,19)           144.8705         estimate D2E/DX2                !
 ! A113  A(13,18,20)           101.3076         estimate D2E/DX2                !
 ! A114  A(16,18,19)           112.0493         estimate D2E/DX2                !
 ! A115  A(16,18,20)           107.671          estimate D2E/DX2                !
 ! A116  A(19,18,20)           113.8098         estimate D2E/DX2                !
 ! A117  A(5,21,14)            105.3452         estimate D2E/DX2                !
 ! A118  A(5,21,22)            110.7555         estimate D2E/DX2                !
 ! A119  A(5,21,23)             93.1082         estimate D2E/DX2                !
 ! A120  A(12,21,22)           119.1762         estimate D2E/DX2                !
 ! A121  A(12,21,23)           122.2731         estimate D2E/DX2                !
 ! A122  A(14,21,22)           111.8346         estimate D2E/DX2                !
 ! A123  A(14,21,23)           117.0179         estimate D2E/DX2                !
 ! A124  A(22,21,23)           116.3984         estimate D2E/DX2                !
 ! A125  A(1,23,21)             86.7786         estimate D2E/DX2                !
 ! A126  A(9,24,17)            101.9315         estimate D2E/DX2                !
 ! A127  A(9,24,25)            130.5956         estimate D2E/DX2                !
 ! A128  A(10,24,17)           106.0717         estimate D2E/DX2                !
 ! A129  A(10,24,25)           115.6103         estimate D2E/DX2                !
 ! A130  A(10,24,26)           112.3613         estimate D2E/DX2                !
 ! A131  A(13,24,25)           164.5094         estimate D2E/DX2                !
 ! A132  A(13,24,26)           103.1516         estimate D2E/DX2                !
 ! A133  A(17,24,25)           124.6278         estimate D2E/DX2                !
 ! A134  A(17,24,26)           105.0541         estimate D2E/DX2                !
 ! A135  A(25,24,26)            91.4856         estimate D2E/DX2                !
 ! A136  L(1,6,18,8,-1)        183.2826         estimate D2E/DX2                !
 ! A137  L(1,9,24,8,-1)        173.5476         estimate D2E/DX2                !
 ! A138  L(2,9,10,4,-1)        179.3939         estimate D2E/DX2                !
 ! A139  L(4,9,26,2,-1)        176.069          estimate D2E/DX2                !
 ! A140  L(18,13,24,8,-1)      182.7869         estimate D2E/DX2                !
 ! A141  L(1,6,18,8,-2)        179.6553         estimate D2E/DX2                !
 ! A142  L(1,9,24,8,-2)        176.2921         estimate D2E/DX2                !
 ! A143  L(2,9,10,4,-2)        187.3553         estimate D2E/DX2                !
 ! A144  L(4,9,26,2,-2)        168.5778         estimate D2E/DX2                !
 ! A145  L(18,13,24,8,-2)      185.7668         estimate D2E/DX2                !
 ! D1    D(2,1,5,12)           -12.178          estimate D2E/DX2                !
 ! D2    D(2,1,5,21)            61.0761         estimate D2E/DX2                !
 ! D3    D(3,1,5,12)          -175.7414         estimate D2E/DX2                !
 ! D4    D(3,1,5,21)          -102.4872         estimate D2E/DX2                !
 ! D5    D(4,1,5,12)            90.5971         estimate D2E/DX2                !
 ! D6    D(4,1,5,21)           163.8513         estimate D2E/DX2                !
 ! D7    D(6,1,5,12)           109.6626         estimate D2E/DX2                !
 ! D8    D(6,1,5,21)          -177.0832         estimate D2E/DX2                !
 ! D9    D(9,1,5,12)            45.9694         estimate D2E/DX2                !
 ! D10   D(9,1,5,21)           119.2236         estimate D2E/DX2                !
 ! D11   D(23,1,5,12)         -101.8297         estimate D2E/DX2                !
 ! D12   D(23,1,5,21)          -28.5755         estimate D2E/DX2                !
 ! D13   D(2,1,6,7)            106.7604         estimate D2E/DX2                !
 ! D14   D(2,1,6,8)             -6.4792         estimate D2E/DX2                !
 ! D15   D(2,1,6,13)            40.7015         estimate D2E/DX2                !
 ! D16   D(2,1,6,20)          -105.8187         estimate D2E/DX2                !
 ! D17   D(5,1,6,7)            -20.4189         estimate D2E/DX2                !
 ! D18   D(5,1,6,8)           -133.6584         estimate D2E/DX2                !
 ! D19   D(5,1,6,13)           -86.4777         estimate D2E/DX2                !
 ! D20   D(5,1,6,20)           127.0021         estimate D2E/DX2                !
 ! D21   D(23,1,6,7)          -146.6517         estimate D2E/DX2                !
 ! D22   D(23,1,6,8)           100.1088         estimate D2E/DX2                !
 ! D23   D(23,1,6,13)          147.2895         estimate D2E/DX2                !
 ! D24   D(23,1,6,20)            0.7693         estimate D2E/DX2                !
 ! D25   D(3,1,9,8)             19.0369         estimate D2E/DX2                !
 ! D26   D(3,1,9,10)           -89.92           estimate D2E/DX2                !
 ! D27   D(3,1,9,11)          -174.1606         estimate D2E/DX2                !
 ! D28   D(3,1,9,13)           -25.0975         estimate D2E/DX2                !
 ! D29   D(3,1,9,26)           102.9714         estimate D2E/DX2                !
 ! D30   D(5,1,9,8)            170.5283         estimate D2E/DX2                !
 ! D31   D(5,1,9,10)            61.5714         estimate D2E/DX2                !
 ! D32   D(5,1,9,11)           -22.6692         estimate D2E/DX2                !
 ! D33   D(5,1,9,13)           126.394          estimate D2E/DX2                !
 ! D34   D(5,1,9,26)          -105.5372         estimate D2E/DX2                !
 ! D35   D(23,1,9,8)           -95.4263         estimate D2E/DX2                !
 ! D36   D(23,1,9,10)          155.6167         estimate D2E/DX2                !
 ! D37   D(23,1,9,11)           71.3761         estimate D2E/DX2                !
 ! D38   D(23,1,9,13)         -139.5607         estimate D2E/DX2                !
 ! D39   D(23,1,9,26)          -11.4918         estimate D2E/DX2                !
 ! D40   D(2,1,23,21)          -82.777          estimate D2E/DX2                !
 ! D41   D(3,1,23,21)          168.4504         estimate D2E/DX2                !
 ! D42   D(4,1,23,21)           57.3113         estimate D2E/DX2                !
 ! D43   D(5,1,23,21)           29.2765         estimate D2E/DX2                !
 ! D44   D(6,1,23,21)          168.505          estimate D2E/DX2                !
 ! D45   D(9,1,23,21)          -71.2482         estimate D2E/DX2                !
 ! D46   D(1,4,6,9)             81.0536         estimate D2E/DX2                !
 ! D47   D(1,5,12,11)          -54.5176         estimate D2E/DX2                !
 ! D48   D(1,5,12,14)           71.1583         estimate D2E/DX2                !
 ! D49   D(1,5,12,15)         -173.8737         estimate D2E/DX2                !
 ! D50   D(1,5,21,14)          -87.5955         estimate D2E/DX2                !
 ! D51   D(1,5,21,22)          151.3105         estimate D2E/DX2                !
 ! D52   D(1,5,21,23)           31.5256         estimate D2E/DX2                !
 ! D53   D(3,6,9,2)             -9.4891         estimate D2E/DX2                !
 ! D54   D(3,6,9,10)           165.3812         estimate D2E/DX2                !
 ! D55   D(3,6,9,11)            71.9989         estimate D2E/DX2                !
 ! D56   D(3,6,9,24)          -146.6031         estimate D2E/DX2                !
 ! D57   D(3,6,9,26)           -83.5399         estimate D2E/DX2                !
 ! D58   D(7,6,9,2)           -170.8619         estimate D2E/DX2                !
 ! D59   D(7,6,9,10)             4.0084         estimate D2E/DX2                !
 ! D60   D(7,6,9,11)           -89.3739         estimate D2E/DX2                !
 ! D61   D(7,6,9,24)            52.024          estimate D2E/DX2                !
 ! D62   D(7,6,9,26)           115.0873         estimate D2E/DX2                !
 ! D63   D(18,6,9,2)           148.6397         estimate D2E/DX2                !
 ! D64   D(18,6,9,10)          -36.49           estimate D2E/DX2                !
 ! D65   D(18,6,9,11)         -129.8723         estimate D2E/DX2                !
 ! D66   D(18,6,9,24)           11.5257         estimate D2E/DX2                !
 ! D67   D(18,6,9,26)           74.5889         estimate D2E/DX2                !
 ! D68   D(20,6,9,2)            93.8446         estimate D2E/DX2                !
 ! D69   D(20,6,9,10)          -91.2851         estimate D2E/DX2                !
 ! D70   D(20,6,9,11)          175.3327         estimate D2E/DX2                !
 ! D71   D(20,6,9,24)          -43.2694         estimate D2E/DX2                !
 ! D72   D(20,6,9,26)           19.7938         estimate D2E/DX2                !
 ! D73   D(1,6,13,10)           44.811          estimate D2E/DX2                !
 ! D74   D(1,6,13,16)         -151.4539         estimate D2E/DX2                !
 ! D75   D(1,6,13,17)          -68.3177         estimate D2E/DX2                !
 ! D76   D(1,6,13,24)           -5.5799         estimate D2E/DX2                !
 ! D77   D(3,6,13,10)          105.6283         estimate D2E/DX2                !
 ! D78   D(3,6,13,16)          -90.6365         estimate D2E/DX2                !
 ! D79   D(3,6,13,17)           -7.5004         estimate D2E/DX2                !
 ! D80   D(3,6,13,24)           55.2375         estimate D2E/DX2                !
 ! D81   D(4,6,13,10)           -1.1478         estimate D2E/DX2                !
 ! D82   D(4,6,13,16)          162.5873         estimate D2E/DX2                !
 ! D83   D(4,6,13,17)         -114.2766         estimate D2E/DX2                !
 ! D84   D(4,6,13,24)          -51.5387         estimate D2E/DX2                !
 ! D85   D(20,6,13,10)        -159.8049         estimate D2E/DX2                !
 ! D86   D(20,6,13,16)           3.9303         estimate D2E/DX2                !
 ! D87   D(20,6,13,17)          87.0664         estimate D2E/DX2                !
 ! D88   D(20,6,13,24)         149.8043         estimate D2E/DX2                !
 ! D89   D(3,6,18,16)          112.5517         estimate D2E/DX2                !
 ! D90   D(3,6,18,19)          -68.8878         estimate D2E/DX2                !
 ! D91   D(4,6,18,16)         -103.024          estimate D2E/DX2                !
 ! D92   D(4,6,18,19)           75.5365         estimate D2E/DX2                !
 ! D93   D(8,6,18,16)            9.7016         estimate D2E/DX2                !
 ! D94   D(8,6,18,19)         -171.738          estimate D2E/DX2                !
 ! D95   D(9,6,18,16)          -40.2816         estimate D2E/DX2                !
 ! D96   D(9,6,18,19)          138.2789         estimate D2E/DX2                !
 ! D97   D(6,7,13,18)          -78.7083         estimate D2E/DX2                !
 ! D98   D(6,8,9,13)            76.8018         estimate D2E/DX2                !
 ! D99   D(1,9,11,12)          -10.5713         estimate D2E/DX2                !
 ! D100  D(2,9,11,12)           34.4148         estimate D2E/DX2                !
 ! D101  D(4,9,11,12)          -61.0399         estimate D2E/DX2                !
 ! D102  D(6,9,11,12)          -48.1576         estimate D2E/DX2                !
 ! D103  D(8,9,11,12)           43.4793         estimate D2E/DX2                !
 ! D104  D(10,9,11,12)        -145.9005         estimate D2E/DX2                !
 ! D105  D(13,9,11,12)        -140.4736         estimate D2E/DX2                !
 ! D106  D(24,9,11,12)         164.3059         estimate D2E/DX2                !
 ! D107  D(26,9,11,12)         115.9908         estimate D2E/DX2                !
 ! D108  D(1,9,13,7)           -49.842          estimate D2E/DX2                !
 ! D109  D(1,9,13,16)           58.2887         estimate D2E/DX2                !
 ! D110  D(1,9,13,17)          141.2806         estimate D2E/DX2                !
 ! D111  D(1,9,13,18)           -6.1128         estimate D2E/DX2                !
 ! D112  D(2,9,13,7)          -100.5314         estimate D2E/DX2                !
 ! D113  D(2,9,13,16)            7.5993         estimate D2E/DX2                !
 ! D114  D(2,9,13,17)           90.5912         estimate D2E/DX2                !
 ! D115  D(2,9,13,18)          -56.8023         estimate D2E/DX2                !
 ! D116  D(4,9,13,7)            -4.7295         estimate D2E/DX2                !
 ! D117  D(4,9,13,16)          103.4012         estimate D2E/DX2                !
 ! D118  D(4,9,13,17)         -173.6068         estimate D2E/DX2                !
 ! D119  D(4,9,13,18)           38.9997         estimate D2E/DX2                !
 ! D120  D(11,9,13,7)           72.6043         estimate D2E/DX2                !
 ! D121  D(11,9,13,16)        -179.265          estimate D2E/DX2                !
 ! D122  D(11,9,13,17)         -96.273          estimate D2E/DX2                !
 ! D123  D(11,9,13,18)         116.3335         estimate D2E/DX2                !
 ! D124  D(26,9,13,7)          170.629          estimate D2E/DX2                !
 ! D125  D(26,9,13,16)         -81.2403         estimate D2E/DX2                !
 ! D126  D(26,9,13,17)           1.7516         estimate D2E/DX2                !
 ! D127  D(26,9,13,18)        -145.6419         estimate D2E/DX2                !
 ! D128  D(2,9,24,17)          -87.9226         estimate D2E/DX2                !
 ! D129  D(2,9,24,25)           73.1563         estimate D2E/DX2                !
 ! D130  D(4,9,24,17)           94.602          estimate D2E/DX2                !
 ! D131  D(4,9,24,25)         -104.3191         estimate D2E/DX2                !
 ! D132  D(6,9,24,17)           29.2891         estimate D2E/DX2                !
 ! D133  D(6,9,24,25)         -169.632          estimate D2E/DX2                !
 ! D134  D(8,9,24,17)          -11.8999         estimate D2E/DX2                !
 ! D135  D(8,9,24,25)          149.179          estimate D2E/DX2                !
 ! D136  D(11,9,24,17)        -178.0048         estimate D2E/DX2                !
 ! D137  D(11,9,24,25)         -16.9259         estimate D2E/DX2                !
 ! D138  D(9,10,13,24)          75.9012         estimate D2E/DX2                !
 ! D139  D(9,11,12,5)           45.2302         estimate D2E/DX2                !
 ! D140  D(9,11,12,14)         -70.4418         estimate D2E/DX2                !
 ! D141  D(9,11,12,15)         162.8547         estimate D2E/DX2                !
 ! D142  D(9,11,12,21)          -6.6852         estimate D2E/DX2                !
 ! D143  D(11,12,21,22)        168.782          estimate D2E/DX2                !
 ! D144  D(11,12,21,23)          6.0639         estimate D2E/DX2                !
 ! D145  D(15,12,21,22)         -0.5891         estimate D2E/DX2                !
 ! D146  D(15,12,21,23)       -163.3073         estimate D2E/DX2                !
 ! D147  D(8,13,18,19)         167.4725         estimate D2E/DX2                !
 ! D148  D(8,13,18,20)         -14.0286         estimate D2E/DX2                !
 ! D149  D(9,13,18,19)        -142.9965         estimate D2E/DX2                !
 ! D150  D(9,13,18,20)          35.5023         estimate D2E/DX2                !
 ! D151  D(10,13,18,19)        -65.7234         estimate D2E/DX2                !
 ! D152  D(10,13,18,20)        112.7754         estimate D2E/DX2                !
 ! D153  D(17,13,18,19)         78.9723         estimate D2E/DX2                !
 ! D154  D(17,13,18,20)       -102.5288         estimate D2E/DX2                !
 ! D155  D(6,13,24,25)         130.8875         estimate D2E/DX2                !
 ! D156  D(6,13,24,26)         -29.6322         estimate D2E/DX2                !
 ! D157  D(7,13,24,25)          53.3493         estimate D2E/DX2                !
 ! D158  D(7,13,24,26)        -107.1704         estimate D2E/DX2                !
 ! D159  D(8,13,24,25)         173.9981         estimate D2E/DX2                !
 ! D160  D(8,13,24,26)          13.4784         estimate D2E/DX2                !
 ! D161  D(16,13,24,25)        -93.8834         estimate D2E/DX2                !
 ! D162  D(16,13,24,26)        105.5969         estimate D2E/DX2                !
 ! D163  D(5,21,23,1)          -33.2365         estimate D2E/DX2                !
 ! D164  D(12,21,23,1)          14.8958         estimate D2E/DX2                !
 ! D165  D(14,21,23,1)          75.74           estimate D2E/DX2                !
 ! D166  D(22,21,23,1)        -148.2715         estimate D2E/DX2                !
 --------------------------------------------------------------------------------
 Trust Radius=3.00D-01 FncErr=1.00D-07 GrdErr=1.00D-06 EigMax=2.50D+02 EigMin=1.00D-04
 Number of steps in this run=    156 maximum allowed number of steps=    156.
 GradGradGradGradGradGradGradGradGradGradGradGradGradGradGradGradGradGrad

                          Input orientation:                          
 ---------------------------------------------------------------------
 Center     Atomic      Atomic             Coordinates (Angstroms)
 Number     Number       Type             X           Y           Z
 ---------------------------------------------------------------------
      1         42           0        0.280997    2.420111   12.256568
      2         16           0        1.249715    4.268554   11.633787
      3         16           0       -1.675061    2.930040   13.315814
      4         16           0       -0.467401    1.321466   10.265200
      5         16           0        1.888290    0.317912   12.035727
      6         42           0       -2.244816    2.778388   11.004647
      7         16           0       -3.253648    1.633142    8.933414
      8         16           0       -1.601578    4.927731   10.398311
      9         42           0        0.186584    3.528191    9.441284
     10         16           0       -0.579342    2.659251    7.210628
     11         16           0        2.445880    2.338455    8.994138
     12         42           0        3.537517    1.472346   10.752047
     13         42           0       -2.344792    3.856933    8.420295
     14         16           0        4.514680    2.924788   12.296470
     15         16           0        4.995613    0.085579   10.132687
     16         16           0       -4.612569    4.913733    8.628565
     17         16           0       -1.906286    6.037601    7.210921
     18         42           0       -4.937429    2.989785    9.719524
     19         16           0       -6.870408    2.193053    9.369516
     20         16           0       -4.484176    3.352561   11.894405
     21         42           0        3.164404    1.534477   13.577365
     22         16           0        4.301668    0.239499   14.793502
     23         16           0        1.332144    2.474805   14.539231
     24         42           0       -0.011118    4.882015    6.957521
     25         16           0        1.524604    5.307421    5.424308
     26         16           0        1.355604    5.618996    8.615912
 ---------------------------------------------------------------------
                    Distance matrix (angstroms):
                    1          2          3          4          5
     1  Mo   0.000000
     2  S    2.177846   0.000000
     3  S    2.282146   3.629759   0.000000
     4  S    2.394299   3.675166   3.654066   0.000000
     5  S    2.655448   4.022052   4.599925   3.113064   0.000000
     6  Mo   2.841725   3.850735   2.385186   2.414251   4.919312
     7  S    4.914915   5.875176   4.835216   3.103863   6.147658
     8  S    3.644910   3.176600   3.536664   3.782753   6.009221
     9  Mo   3.026975   2.546656   4.339987   2.444620   4.464620
    10  S    5.124342   5.049717   6.208641   3.336557   5.903614
    11  S    3.916227   3.481930   6.000751   3.337225   3.693882
    12  Mo   3.710359   3.718909   5.989052   4.037221   2.387572
    13  Mo   4.865821   4.839054   5.027303   3.654704   6.596590
    14  S    4.263844   3.592332   6.273116   5.614074   3.709678
    15  S    5.673492   5.812257   7.919668   5.602633   3.651164
    16  S    6.582366   6.619214   5.876589   5.724105   8.659763
    17  S    6.582476   5.714159   6.854204   5.800081   8.390018
    18  Mo   5.830359   6.601546   4.855916   4.802312   7.687271
    19  S    7.715518   8.681649   6.565672   6.523834   9.345567
    20  S    4.869035   5.812441   3.176485   4.786871   7.059560
    21  Mo   3.292854   3.862474   5.043454   4.919941   2.342039
    22  S    5.230382   5.960830   6.718918   6.664847   3.665497
    23  S    2.513653   3.415543   3.278303   4.778692   3.350973
    24  Mo   5.850316   4.881956   6.856151   4.881234   7.087098
    25  S    7.520831   6.301781   8.841135   6.579526   8.290858
    26  S    4.964073   3.307941   6.205199   4.950986   6.330907
                    6          7          8          9         10
     6  Mo   0.000000
     7  S    2.572807   0.000000
     8  S    2.324021   3.966053   0.000000
     9  Mo   2.986304   3.960346   2.464170   0.000000
    10  S    4.145187   3.342574   4.043797   2.513469   0.000000
    11  S    5.122335   5.743324   5.005793   2.592263   3.526441
    12  Mo   5.933374   7.032297   6.202831   4.144074   5.558680
    13  Mo   2.802165   2.456533   2.368865   2.749246   2.452458
    14  S    6.883388   8.563026   6.709948   5.220019   7.203149
    15  S    7.774017   8.478415   8.187791   5.954526   6.800172
    16  S    3.976395   3.563969   3.492601   5.060841   4.833234
    17  S    5.012926   4.917482   3.388822   3.956231   3.629605
    18  Mo   2.991052   2.300775   3.917179   5.159729   5.039517
    19  S    4.940888   3.685734   6.024737   7.182540   6.667507
    20  S    2.477111   3.638416   3.609547   5.278698   6.137277
    21  Mo   6.117667   7.922588   6.658464   5.472611   7.471017
    22  S    7.978586   9.662591   8.726141   7.509704   9.336993
    23  S    5.037866   7.291301   5.636558   5.330196   7.576029
    24  Mo   5.078768   4.997332   3.790869   2.835666   2.308164
    25  S    7.193380   6.974657   5.887095   4.592609   3.824962
    26  S    5.170893   6.101889   3.521323   2.533636   3.805119
                   11         12         13         14         15
    11  S    0.000000
    12  Mo   2.243225   0.000000
    13  Mo   5.058222   6.762018   0.000000
    14  S    3.940700   2.334454   7.933850   0.000000
    15  S    3.587880   2.105415   8.428342   3.601994   0.000000
    16  S    7.522460   9.098144   2.510581  10.035741  10.857744
    17  S    5.983719   7.938269   2.531834   8.762489   9.570762
    18  Mo   7.447393   8.671415   3.026831   9.797308  10.357144
    19  S    9.324981  10.524054   4.914338  11.778061  12.075857
    20  S    7.580609   8.317917   4.111058   9.017985  10.180531
    21  Mo   4.708357   2.850525   7.895595   2.323123   4.161543
    22  S    6.440667   4.293856   9.893383   3.673053   4.714705
    23  S    5.657478   4.495704   7.271280   3.919311   6.208626
    24  Mo   4.080974   6.214264   2.938798   7.267597   7.625932
    25  S    4.733624   6.866180   5.104124   7.864102   7.841197
    26  S    3.477601   5.149614   4.103177   5.548425   6.794776
                   16         17         18         19         20
    16  S    0.000000
    17  S    3.255267   0.000000
    18  Mo   2.235464   4.976957   0.000000
    19  S    3.612332   6.639472   2.119834   0.000000
    20  S    3.622079   5.982473   2.251034   3.662462   0.000000
    21  Mo   9.817907   9.301700   9.090685  10.901246   8.039811
    22  S   11.803327  11.386493  10.893587  12.571845   9.761505
    23  S    8.730633   8.768413   7.924792   9.699855   6.449429
    24  Mo   4.895584   2.234111   5.956319   7.752296   6.835225
    25  S    6.934490   3.936516   8.098036   9.784691   9.043731
    26  S    6.009713   3.576193   6.908905   8.942722   7.070239
                   21         22         23         24         25
    21  Mo   0.000000
    22  S    2.109343   0.000000
    23  S    2.273011   3.725496   0.000000
    24  Mo   8.069218  10.077484   8.067301   0.000000
    25  S    9.132162  11.008075   9.546862   2.211369   0.000000
    26  S    6.676157   8.705223   6.706131   2.271856   3.211227
                   26
    26  S    0.000000
 Symmetry turned off by external request.
 Stoichiometry    Mo8S18
 Framework group  C1[X(Mo8S18)]
 Deg. of freedom    72
 Full point group                 C1      NOp   1
 Rotational constants (GHZ):           0.0712441           0.0329936           0.0255923
 General basis read from cards:  (5D, 7F)
 ======================================================================================================
                                       Pseudopotential Parameters
 ======================================================================================================
  Center     Atomic      Valence      Angular      Power
  Number     Number     Electrons     Momentum     of R      Exponent        Coefficient   SO-Coeffient
 ======================================================================================================
    1         42           14
                                      F and up 
                                                     0      537.9667807       -0.04694920    0.00000000
                                                     1      147.8982938      -20.20800840    0.00000000
                                                     2       45.7358898     -106.21163020    0.00000000
                                                     2       13.2911467      -41.81073680    0.00000000
                                                     2        4.7059961       -4.20541030    0.00000000
                                      S - F
                                                     0      110.2991760        2.80637170    0.00000000
                                                     1       23.2014645       44.51620120    0.00000000
                                                     2        5.3530131       82.77852270    0.00000000
                                      P - F
                                                     0       63.2901397        4.94208760    0.00000000
                                                     1       23.3315302       25.86049760    0.00000000
                                                     2       24.6759423      132.47087420    0.00000000
                                                     2        4.6493040       57.31497940    0.00000000
                                      D - F
                                                     0      104.4839977        3.00545910    0.00000000
                                                     1       66.2307245       26.36378510    0.00000000
                                                     2       39.1283176      183.38491990    0.00000000
                                                     2       13.1164437       98.44530680    0.00000000
                                                     2        3.6280263       22.49013770    0.00000000
    2         16
                                   No pseudopotential on this center.
    3         16
                                   No pseudopotential on this center.
    4         16
                                   No pseudopotential on this center.
    5         16
                                   No pseudopotential on this center.
    6         42           14
                                      F and up 
                                                     0      537.9667807       -0.04694920    0.00000000
                                                     1      147.8982938      -20.20800840    0.00000000
                                                     2       45.7358898     -106.21163020    0.00000000
                                                     2       13.2911467      -41.81073680    0.00000000
                                                     2        4.7059961       -4.20541030    0.00000000
                                      S - F
                                                     0      110.2991760        2.80637170    0.00000000
                                                     1       23.2014645       44.51620120    0.00000000
                                                     2        5.3530131       82.77852270    0.00000000
                                      P - F
                                                     0       63.2901397        4.94208760    0.00000000
                                                     1       23.3315302       25.86049760    0.00000000
                                                     2       24.6759423      132.47087420    0.00000000
                                                     2        4.6493040       57.31497940    0.00000000
                                      D - F
                                                     0      104.4839977        3.00545910    0.00000000
                                                     1       66.2307245       26.36378510    0.00000000
                                                     2       39.1283176      183.38491990    0.00000000
                                                     2       13.1164437       98.44530680    0.00000000
                                                     2        3.6280263       22.49013770    0.00000000
    7         16
                                   No pseudopotential on this center.
    8         16
                                   No pseudopotential on this center.
    9         42           14
                                      F and up 
                                                     0      537.9667807       -0.04694920    0.00000000
                                                     1      147.8982938      -20.20800840    0.00000000
                                                     2       45.7358898     -106.21163020    0.00000000
                                                     2       13.2911467      -41.81073680    0.00000000
                                                     2        4.7059961       -4.20541030    0.00000000
                                      S - F
                                                     0      110.2991760        2.80637170    0.00000000
                                                     1       23.2014645       44.51620120    0.00000000
                                                     2        5.3530131       82.77852270    0.00000000
                                      P - F
                                                     0       63.2901397        4.94208760    0.00000000
                                                     1       23.3315302       25.86049760    0.00000000
                                                     2       24.6759423      132.47087420    0.00000000
                                                     2        4.6493040       57.31497940    0.00000000
                                      D - F
                                                     0      104.4839977        3.00545910    0.00000000
                                                     1       66.2307245       26.36378510    0.00000000
                                                     2       39.1283176      183.38491990    0.00000000
                                                     2       13.1164437       98.44530680    0.00000000
                                                     2        3.6280263       22.49013770    0.00000000
   10         16
                                   No pseudopotential on this center.
   11         16
                                   No pseudopotential on this center.
   12         42           14
                                      F and up 
                                                     0      537.9667807       -0.04694920    0.00000000
                                                     1      147.8982938      -20.20800840    0.00000000
                                                     2       45.7358898     -106.21163020    0.00000000
                                                     2       13.2911467      -41.81073680    0.00000000
                                                     2        4.7059961       -4.20541030    0.00000000
                                      S - F
                                                     0      110.2991760        2.80637170    0.00000000
                                                     1       23.2014645       44.51620120    0.00000000
                                                     2        5.3530131       82.77852270    0.00000000
                                      P - F
                                                     0       63.2901397        4.94208760    0.00000000
                                                     1       23.3315302       25.86049760    0.00000000
                                                     2       24.6759423      132.47087420    0.00000000
                                                     2        4.6493040       57.31497940    0.00000000
                                      D - F
                                                     0      104.4839977        3.00545910    0.00000000
                                                     1       66.2307245       26.36378510    0.00000000
                                                     2       39.1283176      183.38491990    0.00000000
                                                     2       13.1164437       98.44530680    0.00000000
                                                     2        3.6280263       22.49013770    0.00000000
   13         42           14
                                      F and up 
                                                     0      537.9667807       -0.04694920    0.00000000
                                                     1      147.8982938      -20.20800840    0.00000000
                                                     2       45.7358898     -106.21163020    0.00000000
                                                     2       13.2911467      -41.81073680    0.00000000
                                                     2        4.7059961       -4.20541030    0.00000000
                                      S - F
                                                     0      110.2991760        2.80637170    0.00000000
                                                     1       23.2014645       44.51620120    0.00000000
                                                     2        5.3530131       82.77852270    0.00000000
                                      P - F
                                                     0       63.2901397        4.94208760    0.00000000
                                                     1       23.3315302       25.86049760    0.00000000
                                                     2       24.6759423      132.47087420    0.00000000
                                                     2        4.6493040       57.31497940    0.00000000
                                      D - F
                                                     0      104.4839977        3.00545910    0.00000000
                                                     1       66.2307245       26.36378510    0.00000000
                                                     2       39.1283176      183.38491990    0.00000000
                                                     2       13.1164437       98.44530680    0.00000000
                                                     2        3.6280263       22.49013770    0.00000000
   14         16
                                   No pseudopotential on this center.
   15         16
                                   No pseudopotential on this center.
   16         16
                                   No pseudopotential on this center.
   17         16
                                   No pseudopotential on this center.
   18         42           14
                                      F and up 
                                                     0      537.9667807       -0.04694920    0.00000000
                                                     1      147.8982938      -20.20800840    0.00000000
                                                     2       45.7358898     -106.21163020    0.00000000
                                                     2       13.2911467      -41.81073680    0.00000000
                                                     2        4.7059961       -4.20541030    0.00000000
                                      S - F
                                                     0      110.2991760        2.80637170    0.00000000
                                                     1       23.2014645       44.51620120    0.00000000
                                                     2        5.3530131       82.77852270    0.00000000
                                      P - F
                                                     0       63.2901397        4.94208760    0.00000000
                                                     1       23.3315302       25.86049760    0.00000000
                                                     2       24.6759423      132.47087420    0.00000000
                                                     2        4.6493040       57.31497940    0.00000000
                                      D - F
                                                     0      104.4839977        3.00545910    0.00000000
                                                     1       66.2307245       26.36378510    0.00000000
                                                     2       39.1283176      183.38491990    0.00000000
                                                     2       13.1164437       98.44530680    0.00000000
                                                     2        3.6280263       22.49013770    0.00000000
   19         16
                                   No pseudopotential on this center.
   20         16
                                   No pseudopotential on this center.
   21         42           14
                                      F and up 
                                                     0      537.9667807       -0.04694920    0.00000000
                                                     1      147.8982938      -20.20800840    0.00000000
                                                     2       45.7358898     -106.21163020    0.00000000
                                                     2       13.2911467      -41.81073680    0.00000000
                                                     2        4.7059961       -4.20541030    0.00000000
                                      S - F
                                                     0      110.2991760        2.80637170    0.00000000
                                                     1       23.2014645       44.51620120    0.00000000
                                                     2        5.3530131       82.77852270    0.00000000
                                      P - F
                                                     0       63.2901397        4.94208760    0.00000000
                                                     1       23.3315302       25.86049760    0.00000000
                                                     2       24.6759423      132.47087420    0.00000000
                                                     2        4.6493040       57.31497940    0.00000000
                                      D - F
                                                     0      104.4839977        3.00545910    0.00000000
                                                     1       66.2307245       26.36378510    0.00000000
                                                     2       39.1283176      183.38491990    0.00000000
                                                     2       13.1164437       98.44530680    0.00000000
                                                     2        3.6280263       22.49013770    0.00000000
   22         16
                                   No pseudopotential on this center.
   23         16
                                   No pseudopotential on this center.
   24         42           14
                                      F and up 
                                                     0      537.9667807       -0.04694920    0.00000000
                                                     1      147.8982938      -20.20800840    0.00000000
                                                     2       45.7358898     -106.21163020    0.00000000
                                                     2       13.2911467      -41.81073680    0.00000000
                                                     2        4.7059961       -4.20541030    0.00000000
                                      S - F
                                                     0      110.2991760        2.80637170    0.00000000
                                                     1       23.2014645       44.51620120    0.00000000
                                                     2        5.3530131       82.77852270    0.00000000
                                      P - F
                                                     0       63.2901397        4.94208760    0.00000000
                                                     1       23.3315302       25.86049760    0.00000000
                                                     2       24.6759423      132.47087420    0.00000000
                                                     2        4.6493040       57.31497940    0.00000000
                                      D - F
                                                     0      104.4839977        3.00545910    0.00000000
                                                     1       66.2307245       26.36378510    0.00000000
                                                     2       39.1283176      183.38491990    0.00000000
                                                     2       13.1164437       98.44530680    0.00000000
                                                     2        3.6280263       22.49013770    0.00000000
   25         16
                                   No pseudopotential on this center.
   26         16
                                   No pseudopotential on this center.
 ======================================================================================================
   500 basis functions,  1328 primitive gaussians,   534 cartesian basis functions
   200 alpha electrons      200 beta electrons
       nuclear repulsion energy      8727.2854978316 Hartrees.
 NAtoms=   26 NActive=   26 NUniq=   26 SFac= 1.00D+00 NAtFMM=   60 NAOKFM=F Big=F
 Integral buffers will be    131072 words long.
 Raffenetti 2 integral format.
 Two-electron integral symmetry is turned off.
 One-electron integrals computed using PRISM.
   1 Symmetry operations used in ECPInt.
 ECPInt:  NShTT=   11935 NPrTT=   98601 LenC2=   10369 LenP2D=   50527.
 LDataN:  DoStor=T MaxTD1= 5 Len=  102
 NBasis=   500 RedAO= T EigKep=  3.21D-04  NBF=   500
 NBsUse=   500 1.00D-06 EigRej= -1.00D+00 NBFU=   500
 Defaulting to unpruned grid for atomic number  42.
 Defaulting to unpruned grid for atomic number  42.
 Defaulting to unpruned grid for atomic number  42.
 Defaulting to unpruned grid for atomic number  42.
 Defaulting to unpruned grid for atomic number  42.
 Defaulting to unpruned grid for atomic number  42.
 Defaulting to unpruned grid for atomic number  42.
 Defaulting to unpruned grid for atomic number  42.
 ExpMin= 2.47D-02 ExpMax= 2.19D+04 ExpMxC= 3.30D+03 IAcc=3 IRadAn=         5 AccDes= 0.00D+00
 Harris functional with IExCor=  402 and IRadAn=       5 diagonalized for initial guess.
 HarFok:  IExCor=  402 AccDes= 0.00D+00 IRadAn=         5 IDoV= 1 UseB2=F ITyADJ=14
 ICtDFT=  3500011 ScaDFX=  1.000000  1.000000  1.000000  1.000000
 Defaulting to unpruned grid for atomic number  42.
 FoFCou: FMM=F IPFlag=           0 FMFlag=      100000 FMFlg1=           0
         NFxFlg=           0 DoJE=T BraDBF=F KetDBF=T FulRan=T
         wScrn=  0.000000 ICntrl=       500 IOpCl=  0 I1Cent=   200000004 NGrid=           0
         NMat0=    1 NMatS0=      1 NMatT0=    0 NMatD0=    1 NMtDS0=    0 NMtDT0=    0
 Symmetry not used in FoFCou.
 Requested convergence on RMS density matrix=1.00D-08 within 128 cycles.
 Requested convergence on MAX density matrix=1.00D-06.
 Requested convergence on             energy=1.00D-06.
 No special actions if energy rises.
 Defaulting to unpruned grid for atomic number  42.
 Defaulting to unpruned grid for atomic number  42.
 Defaulting to unpruned grid for atomic number  42.
 Defaulting to unpruned grid for atomic number  42.
 Defaulting to unpruned grid for atomic number  42.
 Defaulting to unpruned grid for atomic number  42.
 Defaulting to unpruned grid for atomic number  42.
 Defaulting to unpruned grid for atomic number  42.
 Defaulting to unpruned grid for atomic number  42.
 Defaulting to unpruned grid for atomic number  42.
 Defaulting to unpruned grid for atomic number  42.
 Defaulting to unpruned grid for atomic number  42.
 Defaulting to unpruned grid for atomic number  42.
 Defaulting to unpruned grid for atomic number  42.
 Defaulting to unpruned grid for atomic number  42.
 Defaulting to unpruned grid for atomic number  42.
 Defaulting to unpruned grid for atomic number  42.
 Defaulting to unpruned grid for atomic number  42.
 Defaulting to unpruned grid for atomic number  42.
 Defaulting to unpruned grid for atomic number  42.
 Defaulting to unpruned grid for atomic number  42.
 Defaulting to unpruned grid for atomic number  42.
 Defaulting to unpruned grid for atomic number  42.
 Defaulting to unpruned grid for atomic number  42.
 Defaulting to unpruned grid for atomic number  42.
 Defaulting to unpruned grid for atomic number  42.
 Defaulting to unpruned grid for atomic number  42.
 Defaulting to unpruned grid for atomic number  42.
 Defaulting to unpruned grid for atomic number  42.
 Defaulting to unpruned grid for atomic number  42.
 Defaulting to unpruned grid for atomic number  42.
 Defaulting to unpruned grid for atomic number  42.
 Defaulting to unpruned grid for atomic number  42.
 Defaulting to unpruned grid for atomic number  42.
 Defaulting to unpruned grid for atomic number  42.
 Defaulting to unpruned grid for atomic number  42.
 Defaulting to unpruned grid for atomic number  42.
 Defaulting to unpruned grid for atomic number  42.
 Defaulting to unpruned grid for atomic number  42.
 Defaulting to unpruned grid for atomic number  42.
 Defaulting to unpruned grid for atomic number  42.
 Defaulting to unpruned grid for atomic number  42.
 Defaulting to unpruned grid for atomic number  42.
 Defaulting to unpruned grid for atomic number  42.
 Defaulting to unpruned grid for atomic number  42.
 Defaulting to unpruned grid for atomic number  42.
 EnCoef did     4 forward-backward iterations
 EnCoef did   100 forward-backward iterations
 EnCoef did   100 forward-backward iterations
 EnCoef did     3 forward-backward iterations
 EnCoef did     8 forward-backward iterations
 EnCoef did     3 forward-backward iterations
 EnCoef did   100 forward-backward iterations
 EnCoef did     2 forward-backward iterations
 Restarting incremental Fock formation.
 SCF Done:  E(RB3LYP) =  -7708.66575336     A.U. after   33 cycles
            NFock= 33  Conv=0.76D-08     -V/T= 2.0515

 **********************************************************************

            Population analysis using the SCF Density.

 **********************************************************************

 Alpha  occ. eigenvalues --  -88.94928 -88.93692 -88.93598 -88.93059 -88.92989
 Alpha  occ. eigenvalues --  -88.92340 -88.91679 -88.91175 -88.90801 -88.90472
 Alpha  occ. eigenvalues --  -88.90367 -88.89755 -88.89177 -88.88775 -88.88637
 Alpha  occ. eigenvalues --  -88.88549 -88.88469 -88.88018  -8.02291  -8.01239
 Alpha  occ. eigenvalues --   -8.01002  -8.00574  -8.00538  -7.99957  -7.99298
 Alpha  occ. eigenvalues --   -7.98895  -7.98518  -7.98090  -7.97997  -7.97627
 Alpha  occ. eigenvalues --   -7.96946  -7.96742  -7.96496  -7.96361  -7.96257
 Alpha  occ. eigenvalues --   -7.95620  -5.98309  -5.98278  -5.98198  -5.97297
 Alpha  occ. eigenvalues --   -5.97202  -5.97102  -5.97093  -5.96987  -5.96835
 Alpha  occ. eigenvalues --   -5.96609  -5.96586  -5.96540  -5.96501  -5.96462
 Alpha  occ. eigenvalues --   -5.96402  -5.95999  -5.95895  -5.95847  -5.95376
 Alpha  occ. eigenvalues --   -5.95215  -5.95165  -5.94967  -5.94847  -5.94716
 Alpha  occ. eigenvalues --   -5.94612  -5.94456  -5.94333  -5.94158  -5.94080
 Alpha  occ. eigenvalues --   -5.93995  -5.93993  -5.93963  -5.93805  -5.93622
 Alpha  occ. eigenvalues --   -5.93551  -5.93521  -5.93013  -5.92878  -5.92790
 Alpha  occ. eigenvalues --   -5.92740  -5.92710  -5.92563  -5.92484  -5.92470
 Alpha  occ. eigenvalues --   -5.92419  -5.92337  -5.92329  -5.92321  -5.92235
 Alpha  occ. eigenvalues --   -5.92191  -5.92052  -5.91684  -5.91570  -5.91486
 Alpha  occ. eigenvalues --   -2.58895  -2.58778  -2.57962  -2.57813  -2.56844
 Alpha  occ. eigenvalues --   -2.56611  -2.56391  -2.56213  -1.61891  -1.61686
 Alpha  occ. eigenvalues --   -1.61322  -1.61301  -1.61141  -1.60875  -1.60700
 Alpha  occ. eigenvalues --   -1.60588  -1.60372  -1.59912  -1.59809  -1.59778
 Alpha  occ. eigenvalues --   -1.59593  -1.59450  -1.59378  -1.59083  -1.58672
 Alpha  occ. eigenvalues --   -1.58596  -1.58575  -1.58265  -1.58072  -1.57781
 Alpha  occ. eigenvalues --   -1.57733  -1.57549  -0.78672  -0.77161  -0.76389
 Alpha  occ. eigenvalues --   -0.75762  -0.74998  -0.74566  -0.74193  -0.73477
 Alpha  occ. eigenvalues --   -0.72994  -0.72528  -0.71937  -0.71810  -0.71420
 Alpha  occ. eigenvalues --   -0.70884  -0.70559  -0.69968  -0.69788  -0.68508
 Alpha  occ. eigenvalues --   -0.45968  -0.45541  -0.45203  -0.44870  -0.43658
 Alpha  occ. eigenvalues --   -0.43087  -0.42760  -0.42253  -0.41747  -0.41272
 Alpha  occ. eigenvalues --   -0.40788  -0.40705  -0.40577  -0.40291  -0.40058
 Alpha  occ. eigenvalues --   -0.39953  -0.39481  -0.39252  -0.38877  -0.38567
 Alpha  occ. eigenvalues --   -0.38452  -0.38059  -0.37906  -0.37722  -0.37371
 Alpha  occ. eigenvalues --   -0.37090  -0.36751  -0.36437  -0.36297  -0.36225
 Alpha  occ. eigenvalues --   -0.35614  -0.35479  -0.35284  -0.35160  -0.35113
 Alpha  occ. eigenvalues --   -0.34860  -0.34677  -0.33884  -0.33667  -0.33319
 Alpha  occ. eigenvalues --   -0.33149  -0.32668  -0.32366  -0.32063  -0.31537
 Alpha  occ. eigenvalues --   -0.31415  -0.30859  -0.30413  -0.29733  -0.29599
 Alpha  occ. eigenvalues --   -0.29060  -0.28800  -0.28356  -0.28281  -0.27928
 Alpha  occ. eigenvalues --   -0.27360  -0.26811  -0.26675  -0.25861  -0.25283
 Alpha virt. eigenvalues --   -0.20713  -0.18367  -0.17226  -0.16754  -0.16121
 Alpha virt. eigenvalues --   -0.15954  -0.15452  -0.15112  -0.14626  -0.14361
 Alpha virt. eigenvalues --   -0.14159  -0.13706  -0.13439  -0.13221  -0.12984
 Alpha virt. eigenvalues --   -0.12755  -0.12402  -0.12196  -0.11896  -0.11597
 Alpha virt. eigenvalues --   -0.11429  -0.10815  -0.10645  -0.10202  -0.09408
 Alpha virt. eigenvalues --   -0.09288  -0.08860  -0.08291  -0.08015  -0.07593
 Alpha virt. eigenvalues --   -0.07236  -0.06564  -0.05781  -0.05218  -0.01684
 Alpha virt. eigenvalues --   -0.00410  -0.00012   0.01098   0.01409   0.01875
 Alpha virt. eigenvalues --    0.02670   0.02869   0.03416   0.03648   0.03975
 Alpha virt. eigenvalues --    0.04265   0.04415   0.05152   0.05283   0.05548
 Alpha virt. eigenvalues --    0.05880   0.06160   0.06388   0.06758   0.07076
 Alpha virt. eigenvalues --    0.07571   0.07854   0.08635   0.08787   0.08977
 Alpha virt. eigenvalues --    0.09466   0.10366   0.10890   0.11195   0.11919
 Alpha virt. eigenvalues --    0.12781   0.13167   0.13552   0.14303   0.15125
 Alpha virt. eigenvalues --    0.15918   0.16477   0.16954   0.17445   0.17804
 Alpha virt. eigenvalues --    0.17992   0.19055   0.19404   0.19701   0.19908
 Alpha virt. eigenvalues --    0.21120   0.21616   0.22035   0.22842   0.24306
 Alpha virt. eigenvalues --    0.24685   0.25409   0.26499   0.26623   0.27148
 Alpha virt. eigenvalues --    0.27804   0.27851   0.28588   0.28866   0.29093
 Alpha virt. eigenvalues --    0.29303   0.29381   0.29915   0.30191   0.30441
 Alpha virt. eigenvalues --    0.30866   0.31359   0.32072   0.32193   0.32539
 Alpha virt. eigenvalues --    0.32651   0.33223   0.33371   0.33641   0.34118
 Alpha virt. eigenvalues --    0.34364   0.35058   0.35302   0.35673   0.35850
 Alpha virt. eigenvalues --    0.36078   0.36475   0.36878   0.36964   0.37021
 Alpha virt. eigenvalues --    0.37298   0.37561   0.38014   0.38365   0.38780
 Alpha virt. eigenvalues --    0.39118   0.39457   0.39703   0.39982   0.40389
 Alpha virt. eigenvalues --    0.40526   0.40827   0.40984   0.41624   0.41820
 Alpha virt. eigenvalues --    0.42031   0.42618   0.42684   0.42986   0.43344
 Alpha virt. eigenvalues --    0.43674   0.43920   0.44290   0.44783   0.45382
 Alpha virt. eigenvalues --    0.45720   0.45736   0.45879   0.46198   0.46421
 Alpha virt. eigenvalues --    0.46796   0.47889   0.48581   0.48795   0.49035
 Alpha virt. eigenvalues --    0.49331   0.50128   0.50748   0.51042   0.51531
 Alpha virt. eigenvalues --    0.52127   0.52484   0.53149   0.53388   0.54248
 Alpha virt. eigenvalues --    0.54544   0.54887   0.55393   0.55488   0.56533
 Alpha virt. eigenvalues --    0.57216   0.57633   0.58380   0.59226   0.59607
 Alpha virt. eigenvalues --    0.60127   0.60869   0.61947   0.62596   0.62744
 Alpha virt. eigenvalues --    0.63723   0.64482   0.64956   0.65166   0.65620
 Alpha virt. eigenvalues --    0.66484   0.67085   0.68267   0.68374   0.68771
 Alpha virt. eigenvalues --    0.69393   0.70169   0.70411   0.71336   0.71522
 Alpha virt. eigenvalues --    0.72384   0.72624   0.72922   0.73245   0.74045
 Alpha virt. eigenvalues --    0.74152   0.74606   0.74995   0.75260   0.75836
 Alpha virt. eigenvalues --    0.76008   0.76235   0.76468   0.76973   0.77384
 Alpha virt. eigenvalues --    0.77993   0.78235   0.78345   0.78865   0.79076
 Alpha virt. eigenvalues --    0.79486   0.79734   0.80069   0.80213   0.80452
 Alpha virt. eigenvalues --    0.81089   0.81217   0.81996   0.82653   0.82976
 Alpha virt. eigenvalues --    0.83470   0.83736   0.84188   0.84557   0.84874
 Alpha virt. eigenvalues --    0.85473   0.85800   0.86168   0.86375   0.86824
 Alpha virt. eigenvalues --    0.87123   0.87576   0.89256   0.89354   0.90352
 Alpha virt. eigenvalues --    0.90643   0.91653   0.92929   0.93713   0.94310
 Alpha virt. eigenvalues --    0.94602   0.95085   0.95397   0.95485   0.96007
 Alpha virt. eigenvalues --    0.96302   0.96714   0.97051   0.97385   0.98078
 Alpha virt. eigenvalues --    0.99276   0.99437   0.99737   1.00228   1.00528
 Alpha virt. eigenvalues --    1.00952   1.01386   1.01921   1.02130   1.02481
 Alpha virt. eigenvalues --    1.03174   1.03648   1.04141   1.04472   1.05145
 Alpha virt. eigenvalues --    1.05981   1.06204   1.06305   1.06872   1.08255
 Alpha virt. eigenvalues --    1.08543   1.09845   1.10454   1.11385   1.11542
 Alpha virt. eigenvalues --    1.11916   1.12356   1.15296   1.15934   1.17064
 Alpha virt. eigenvalues --    1.18491   1.20586   1.22675   1.25516   1.30064
 Alpha virt. eigenvalues --    1.34982   1.36706   7.70861   7.92146   9.44280
 Alpha virt. eigenvalues --   11.37369  11.70542  13.73655  14.09832  21.14588
          Condensed to atoms (all electrons):
               1          2          3          4          5          6
     1  Mo  14.264790   0.433262   0.277514   0.150578   0.188947  -0.607634
     2  S    0.433262  15.472425   0.019012  -0.039069  -0.004573  -0.124473
     3  S    0.277514   0.019012  15.557777  -0.035072  -0.001642   0.148299
     4  S    0.150578  -0.039069  -0.035072  15.745474  -0.044389   0.069071
     5  S    0.188947  -0.004573  -0.001642  -0.044389  15.669272   0.034802
     6  Mo  -0.607634  -0.124473   0.148299   0.069071   0.034802  15.390989
     7  S    0.011977  -0.000359  -0.004491  -0.002544   0.000076   0.088665
     8  S   -0.103085  -0.035006  -0.004449  -0.010867  -0.000085   0.258728
     9  Mo  -0.261173   0.141285  -0.029128   0.119676  -0.024264  -0.372132
    10  S    0.000511  -0.003259  -0.000170   0.004085  -0.000013   0.003131
    11  S   -0.011508  -0.038137  -0.000117  -0.029792   0.000835   0.021284
    12  Mo  -0.012666  -0.005487  -0.002098  -0.015226   0.129426   0.060031
    13  Mo   0.092438   0.021803  -0.003784  -0.113068  -0.002038  -0.415709
    14  S   -0.039458  -0.011016   0.000056   0.000071  -0.030478   0.001621
    15  S    0.002209  -0.000154  -0.000000   0.000136   0.002087   0.001294
    16  S    0.002097   0.000022   0.000111  -0.000514  -0.000000  -0.069288
    17  S    0.000201   0.000118   0.000029  -0.000304  -0.000000   0.005023
    18  Mo  -0.058260  -0.001011   0.006698   0.005795   0.000469  -0.245995
    19  S   -0.001852   0.000000   0.000075   0.000050   0.000000  -0.035552
    20  S   -0.000737   0.000134  -0.015230  -0.006355  -0.000012   0.179266
    21  Mo  -0.252268  -0.023658   0.007558   0.018506   0.067302  -0.091306
    22  S   -0.026271  -0.000135   0.000005   0.000052   0.010186  -0.002588
    23  S    0.171694  -0.012735  -0.013002  -0.006499  -0.051758  -0.004753
    24  Mo  -0.054520   0.008267  -0.000495  -0.005891  -0.000564  -0.021020
    25  S   -0.001572   0.000030  -0.000000  -0.000033   0.000000  -0.001987
    26  S    0.000840  -0.013798   0.000108  -0.005075  -0.000024   0.005975
               7          8          9         10         11         12
     1  Mo   0.011977  -0.103085  -0.261173   0.000511  -0.011508  -0.012666
     2  S   -0.000359  -0.035006   0.141285  -0.003259  -0.038137  -0.005487
     3  S   -0.004491  -0.004449  -0.029128  -0.000170  -0.000117  -0.002098
     4  S   -0.002544  -0.010867   0.119676   0.004085  -0.029792  -0.015226
     5  S    0.000076  -0.000085  -0.024264  -0.000013   0.000835   0.129426
     6  Mo   0.088665   0.258728  -0.372132   0.003131   0.021284   0.060031
     7  S   15.651389   0.006035  -0.037274  -0.012738  -0.000088   0.000230
     8  S    0.006035  15.285373   0.097058   0.006887  -0.003487   0.001830
     9  Mo  -0.037274   0.097058  15.593043   0.064414   0.218180  -0.133150
    10  S   -0.012738   0.006887   0.064414  15.576996  -0.018638   0.001353
    11  S   -0.000088  -0.003487   0.218180  -0.018638  15.647590   0.303076
    12  Mo   0.000230   0.001830  -0.133150   0.001353   0.303076  13.218924
    13  Mo   0.115057   0.193305  -0.401691   0.089325  -0.015399  -0.023027
    14  S   -0.000000   0.000014  -0.004843   0.000000   0.011446   0.212280
    15  S    0.000000   0.000000  -0.012025   0.000003   0.015620   0.362276
    16  S   -0.040854  -0.009206  -0.006904  -0.002734  -0.000004  -0.000111
    17  S   -0.004177  -0.009752  -0.101461  -0.042490  -0.000168  -0.000191
    18  Mo   0.124167  -0.055171   0.023980  -0.000426  -0.000028   0.000195
    19  S    0.018618  -0.000139  -0.000254   0.000023   0.000000   0.000000
    20  S   -0.032735   0.006172  -0.005321  -0.000136  -0.000002  -0.000031
    21  Mo   0.000010  -0.000597   0.109893  -0.000051  -0.028041  -0.310049
    22  S    0.000000  -0.000000   0.006539   0.000000  -0.000039  -0.037633
    23  S   -0.000007   0.000069  -0.002842  -0.000003  -0.000189  -0.011726
    24  Mo   0.000365  -0.052711  -0.320648   0.143959  -0.022935   0.005551
    25  S    0.000027  -0.000215  -0.069983   0.017080  -0.000079   0.001465
    26  S   -0.000098  -0.020795   0.205745  -0.012208  -0.035036  -0.004973
              13         14         15         16         17         18
     1  Mo   0.092438  -0.039458   0.002209   0.002097   0.000201  -0.058260
     2  S    0.021803  -0.011016  -0.000154   0.000022   0.000118  -0.001011
     3  S   -0.003784   0.000056  -0.000000   0.000111   0.000029   0.006698
     4  S   -0.113068   0.000071   0.000136  -0.000514  -0.000304   0.005795
     5  S   -0.002038  -0.030478   0.002087  -0.000000  -0.000000   0.000469
     6  Mo  -0.415709   0.001621   0.001294  -0.069288   0.005023  -0.245995
     7  S    0.115057  -0.000000   0.000000  -0.040854  -0.004177   0.124167
     8  S    0.193305   0.000014   0.000000  -0.009206  -0.009752  -0.055171
     9  Mo  -0.401691  -0.004843  -0.012025  -0.006904  -0.101461   0.023980
    10  S    0.089325   0.000000   0.000003  -0.002734  -0.042490  -0.000426
[...]
 4834,-0.00042191,0.00026690,-0.00013241,0.00001402,0.00006584,-0.00386
 773,0.00146204,-0.00290302,-0.00061075,0.00516486,0.00333483,0.0002313
 4,0.00031247,-0.00003772,0.00012616,0.00037367,0.00046254,-0.00039184,
 0.00021876,0.00009127,-0.00017742,0.00010395,-0.00013512,0.00025609,-0
 .00015819,0.00002624,-0.00013371,-0.00145560,0.00089379,-0.00003727,-0
 .00002739,-0.00001508,-0.00016171,0.00014348,0.00008845,-0.00776965,-0
 .00184958,-0.00162227,0.00029283,-0.00010399,-0.00010641,-0.08378429,-
 0.05632437,-0.01862961,0.09502247,0.05253828,0.00015564,0.00024850,0.0
 0020598,-0.00000825,-0.00016367,-0.00000657,-0.00027770,-0.00012569,-0
 .00014973,-0.00032865,0.00019739,0.00012032,-0.00003175,0.00000389,0.0
 0002967,0.00149929,-0.00033446,-0.00046525,0.00043054,0.00260326,0.001
 67998,0.00055500,-0.00016767,-0.00002416,0.00044871,0.00073003,-0.0003
 3428,0.00005033,0.00036223,-0.00036505,-0.00023514,0.00005062,-0.00006
 958,0.00020371,-0.00012153,0.00011783,-0.00570181,-0.00240780,0.004582
 48,-0.00001329,-0.00003033,-0.00002948,-0.00010226,0.00008759,0.000051
 19,0.00407882,-0.00062342,0.00155545,0.00069372,0.00004841,-0.00019247
 ,-0.04680070,-0.01800542,-0.03311828,0.05249304,0.02058018,0.02568961,
 0.00143640,0.00152119,0.00071799,-0.00027330,0.00070205,0.00044367,-0.
 00950469,-0.00040160,-0.00330489,-0.00578051,0.00564578,0.00161476,-0.
 00017279,0.00017595,0.00026477,-0.02777735,-0.00068586,0.00950194,0.00
 590507,-0.00341560,0.00627061,-0.00432160,-0.00136439,-0.00037186,-0.0
 0422340,-0.00394340,0.00334164,0.00150381,-0.00008733,0.00033145,-0.00
 006639,-0.00014049,-0.00045801,-0.00021283,-0.00008242,-0.00017925,-0.
 00226389,0.00555636,0.00209966,-0.00008116,0.00000207,0.00015487,-0.00
 012547,0.00016625,0.00009931,0.00268017,0.00427199,-0.00441296,-0.0006
 2076,-0.00013342,0.00071090,-0.02524390,-0.00086496,0.00473579,0.00004
 792,0.00004762,-0.00759738,0.06983259,-0.00106339,-0.00079706,-0.00134
 367,0.00028618,0.00051563,-0.00042591,0.00085592,0.00081088,0.00149349
 ,-0.00092108,0.00133029,0.00000366,0.00011074,0.00005098,0.00011875,0.
 00869998,-0.01201566,-0.00276356,-0.00149385,0.00288551,-0.00836550,-0
 .00380412,0.00106825,0.00177461,0.00340761,0.00035169,0.00129952,-0.00
 070774,-0.00001898,0.00069111,-0.00021108,0.00015352,-0.00044660,-0.00
 001337,-0.00007614,0.00022201,0.00054345,-0.00244118,-0.00150950,0.000
 01287,-0.00000982,-0.00004164,0.00001874,0.00000014,-0.00001765,-0.000
 54654,0.00511886,0.00679034,-0.00042099,-0.00051799,-0.00027067,-0.000
 64884,-0.01876981,-0.01323111,0.00143146,-0.00022449,-0.00311586,-0.00
 582072,0.02180842,0.00315244,-0.00126848,-0.00073499,-0.00034213,-0.00
 022577,0.00067840,-0.00973510,0.00193781,0.00144282,-0.00187878,0.0021
 6310,0.00220301,-0.00001763,0.00009673,0.00016550,0.04044951,-0.011132
 62,-0.03024276,0.00700556,-0.00335108,-0.00575235,0.00095394,0.0016372
 0,-0.00137738,-0.00380467,0.00031152,0.00237561,0.00053812,-0.00043606
 ,-0.00017118,-0.00008638,0.00005626,-0.00031574,-0.00018494,-0.0000111
 0,-0.00004733,-0.00105509,0.00116534,-0.00062986,0.00000031,0.00000120
 ,0.00009300,-0.00001736,0.00004990,0.00005803,0.00358030,0.01217086,-0
 .00577923,-0.00033302,-0.00011873,0.00042839,-0.01407024,-0.01830653,-
 0.14491632,-0.00975968,-0.00223045,0.00122135,-0.01318487,0.01835143,0
 .18056915,-0.01417452,0.00082375,-0.02319664,-0.00103626,-0.00089860,0
 .00115205,-0.00051216,0.00019004,0.00053541,-0.00094387,0.00102270,0.0
 0082230,-0.04214962,-0.03742090,-0.04301907,-0.00032547,-0.00015311,-0
 .00012641,0.00007688,0.00032257,0.00033627,-0.00071677,0.00050692,0.00
 050696,0.00433046,-0.00409088,0.00319689,0.00053157,-0.00008813,0.0004
 6468,-0.00163508,0.00190464,-0.00588082,-0.00422468,0.00937292,0.01712
 512,-0.00086155,0.00077823,0.00118408,-0.05748177,-0.03900712,0.029819
 41,0.00145739,-0.00163643,-0.00021507,-0.00012303,-0.00030463,0.000115
 13,-0.00050227,-0.00028347,0.00004898,-0.00119092,-0.00024471,-0.00116
 186,0.00066722,0.00035322,0.00013711,0.00060105,-0.00008234,-0.0000147
 4,0.29954875,0.00554947,0.00288018,0.01373342,0.00066277,-0.00229772,0
 .00238082,0.00061375,0.00048203,-0.00044685,0.00086166,-0.00025327,-0.
 00037444,-0.02945482,-0.05090098,-0.05171086,-0.00026986,-0.00032229,-
 0.00158435,-0.00008212,-0.00021981,0.00006025,0.00006630,0.00027935,-0
 .00014447,-0.00078142,0.00070330,-0.00236049,0.00032199,0.00004364,0.0
 0012264,-0.00298780,0.00211262,0.00026043,0.00521883,-0.00554080,0.000
 36054,-0.00021510,0.00024058,0.00038079,-0.04603225,-0.05794763,0.0383
 5320,-0.00003369,-0.00144882,-0.00135603,0.00002357,-0.00001455,-0.000
 06158,0.00000290,0.00000436,-0.00020125,0.00055662,0.00024607,0.000253
 07,-0.00031156,-0.00015728,-0.00008064,-0.00015112,0.00002925,0.000019
 16,-0.06674168,0.26053228,-0.00483443,0.00674162,0.01505386,-0.0003084
 6,-0.00027470,-0.00107896,-0.00049643,0.00014143,-0.00069935,-0.001035
 26,-0.00192496,-0.00093689,-0.03053977,-0.03927158,-0.05317545,0.00205
 475,-0.00036873,0.00012895,-0.00018076,-0.00025568,-0.00004125,0.00003
 311,0.00026968,-0.00056908,-0.00124633,0.00206446,-0.00232043,0.000212
 26,0.00020352,-0.00029508,-0.00230540,-0.00052392,0.00343503,0.0032744
 1,-0.00875326,-0.07441824,0.00032416,-0.00010352,-0.00027034,0.0295294
 0,0.03156023,-0.02552117,0.00025511,0.00062093,0.00372523,0.00006694,0
 .00003094,-0.00004673,0.00013194,0.00000975,0.00007339,-0.00015598,-0.
 00018022,-0.00004204,0.00017930,0.00010310,0.00008300,0.00004505,0.000
 07229,0.00005790,0.04899406,-0.05929283,0.30625704,-0.00016233,0.00027
 448,0.00088370,0.00042095,-0.00021339,-0.00005896,0.00018694,-0.000001
 34,0.00008901,0.00003862,-0.00003317,-0.00014391,-0.00190851,0.0029796
 9,-0.00072347,-0.00011559,0.00019963,-0.00034560,0.00001886,-0.0000204
 5,-0.00003350,0.00002609,-0.00004857,0.00005125,0.00002697,0.00006365,
 -0.00042981,0.00001738,0.00003230,-0.00004940,-0.00090568,0.00043887,0
 .00028111,0.00190066,-0.00037086,-0.00175166,0.00008212,-0.00015399,-0
 .00001066,0.00837991,0.00027220,-0.00127528,0.00091246,-0.00107670,-0.
 00004891,-0.00003508,0.00002153,0.00000655,0.00002947,0.00008241,-0.00
 007141,0.00038373,0.00019392,0.00026111,-0.00029452,-0.00015266,-0.000
 08272,-0.00016096,-0.00003074,-0.00000200,-0.10124970,0.08533586,-0.08
 796264,0.09749481,0.00053123,-0.00011332,-0.00047880,-0.00001411,0.000
 43105,-0.00062165,-0.00002652,0.00001726,-0.00011707,-0.00030709,-0.00
 013201,0.00001591,0.00033470,0.00618107,0.00239745,0.00012995,-0.00017
 601,0.00037599,-0.00001912,0.00001187,-0.00001576,0.00014369,-0.000038
 18,-0.00003465,-0.00029099,0.00087630,0.00052047,0.00005543,-0.0000830
 9,-0.00007005,0.00084424,-0.00085215,0.00021614,-0.00066223,-0.0004515
 9,0.00091833,-0.00002298,-0.00001566,-0.00001717,0.00169459,-0.0024885
 1,0.00391877,-0.00112815,0.00171639,-0.00003494,0.00004706,0.00000565,
 -0.00001257,-0.00001920,-0.00007266,0.00007180,-0.00034466,-0.00021003
 ,-0.00019807,0.00028238,0.00015225,0.00007883,0.00016760,0.00002457,0.
 00001811,0.08451447,-0.10841759,0.09361237,-0.08916820,0.10598163,-0.0
 0027719,0.00023070,0.00042226,0.00009380,-0.00035712,0.00014047,0.0001
 8667,-0.00011183,0.00005077,0.00001902,0.00012431,0.00002588,-0.003563
 99,0.00140629,-0.00226012,-0.00020512,0.00014301,-0.00044129,-0.000030
 54,-0.00000842,-0.00000206,0.00013058,-0.00002972,0.00002331,-0.000168
 94,0.00001926,-0.00014832,-0.00007681,-0.00004361,-0.00004844,-0.00006
 701,0.00008505,-0.00040117,0.00006143,0.00197806,0.00421951,0.00005142
 ,-0.00018405,-0.00000982,0.00195950,0.00346229,-0.00602307,0.00053645,
 -0.00066004,-0.00048365,-0.00002369,0.00003914,0.00000589,0.00003343,0
 .00007445,-0.00011092,0.00044989,0.00014955,0.00021642,-0.00031977,-0.
 00016451,-0.00009122,-0.00013071,0.00003594,0.00000636,-0.08232315,0.0
 9219592,-0.11703675,0.09145400,-0.09919009,0.11261328,-0.01140453,0.00
 621860,0.01119106,-0.00040083,-0.00044201,-0.00061597,-0.01012413,0.00
 137051,-0.00790455,-0.00182785,-0.00323331,-0.00336792,0.01025589,0.00
 298058,0.00158824,0.00523397,-0.00048678,0.00143242,-0.00089898,-0.000
 70506,-0.00053736,0.00135615,-0.00027206,-0.00103325,-0.00621873,0.005
 20143,-0.00451346,-0.00017939,-0.00029573,-0.00078713,0.00491417,-0.00
 321873,0.00335166,-0.00359110,-0.00363239,-0.00320359,0.00100307,-0.00
 062805,-0.00007071,-0.00269814,-0.00336037,0.00665338,-0.00068078,0.00
 128009,-0.00013740,0.00012990,0.00017822,-0.00017105,0.00036832,0.0003
 0876,-0.00035406,0.00060089,-0.00003952,0.00048623,-0.00037488,-0.0001
 6584,-0.00006425,-0.00066936,0.00038618,-0.00041338,-0.08057902,0.0480
 2412,0.04425249,-0.00506287,0.00327133,-0.00776343,0.10137417,-0.00453
 090,-0.01388974,-0.01181700,0.00105301,-0.00001986,0.00619711,0.000923
 84,0.00046678,0.00141640,0.00127076,0.00324083,0.00221869,-0.00001347,
 -0.00367806,-0.00489772,-0.00046394,0.00099988,0.00073335,-0.00023345,
 0.00001272,-0.00024662,-0.00016776,-0.00043215,0.00052262,0.00080303,0
 .00017782,-0.00392437,0.00016819,-0.00023403,0.00068753,-0.00149293,0.
 00032547,-0.00088589,0.00258413,0.00167149,0.00201015,0.00074616,-0.00
 008068,0.00008863,0.00078525,0.00601049,-0.00489404,0.00008396,-0.0001
 3710,-0.00016552,-0.00002947,0.00002532,-0.00001300,-0.00013533,0.0001
 3888,0.00006153,-0.00021974,-0.00018504,0.00045319,-0.00000440,0.00000
 376,-0.00000949,-0.00034281,0.00030446,-0.00013293,0.05008516,-0.04022
 017,-0.02399773,0.00134792,-0.00230067,0.00067538,-0.05247381,0.047707
 75,-0.01097126,-0.00197614,-0.03941099,0.00019175,0.00524564,-0.009504
 63,-0.00347966,0.00092227,0.00132844,-0.00224870,-0.00106423,-0.002346
 63,0.00309982,-0.00630224,-0.00561676,-0.00158141,-0.00081980,-0.00340
 866,0.00004073,-0.00006169,-0.00003680,0.00045650,-0.00052943,-0.00033
 666,-0.00138682,0.00112321,0.00141458,-0.00022226,0.00010309,-0.000479
 37,0.00149641,-0.00042075,0.00062794,0.00021530,-0.00155697,0.00207573
 ,-0.00001151,-0.00041195,0.00019371,0.00076426,0.00111441,-0.00201300,
 -0.00024726,0.00056838,-0.00021913,0.00006368,0.00007324,-0.00002598,0
 .00016786,0.00009404,-0.00023332,0.00078135,0.00001987,0.00025532,-0.0
 0024163,-0.00012361,-0.00004596,-0.00030972,0.00005964,0.00051205,0.05
 268311,-0.03074578,-0.05268782,-0.00009410,-0.00132977,0.00926375,-0.0
 3900064,0.03568288,0.10083012,0.00028736,-0.00268392,0.00101296,-0.001
 36693,-0.00091077,-0.00118107,-0.00072348,0.00060757,0.00016597,0.0024
 7297,-0.00380654,0.00333678,-0.00052401,0.00037057,0.00035143,0.003412
 15,-0.00249334,-0.00446715,0.00122230,0.00295489,0.00288884,0.00051374
 ,0.00231708,-0.00030183,-0.00042662,0.01768053,-0.01049059,-0.01561022
 ,-0.02508688,0.00423005,0.00008209,0.00003488,0.00036614,-0.00062402,0
 .00009472,-0.00177271,-0.03850027,-0.03026723,0.02994405,-0.00023160,0
 .00021758,0.00062357,-0.00004815,0.00020715,-0.00000845,0.00029220,0.0
 0024269,-0.00079759,-0.08726999,0.05940039,0.00493164,-0.00134306,-0.0
 0017334,0.00077500,0.00086536,0.00025317,0.00058621,-0.00097658,0.0001
 8622,-0.00146233,0.00172543,-0.00032887,-0.00069852,-0.00010356,0.0000
 3797,-0.00009800,-0.00147621,0.00032594,-0.00036995,0.27408857,0.00071
 806,0.00189571,-0.00129082,-0.00103555,-0.00291700,-0.00062756,-0.0003
 5138,-0.00103972,-0.00087411,-0.00197627,-0.00149894,0.00228822,0.0002
 0001,0.00020102,0.00016306,-0.00188938,-0.00016736,0.00058299,-0.00402
 102,-0.00172408,0.00014015,0.00101277,-0.00223695,-0.00139439,0.012765
 05,0.01610983,0.01031919,-0.02715422,-0.13314801,0.01146003,0.00056630
 ,-0.00257991,0.00102314,0.00007353,-0.00025372,-0.00115107,-0.01459747
 ,0.01285212,0.00549340,0.00014518,-0.00025188,0.00061306,-0.00015738,0
 .00012240,0.00018569,0.00135545,-0.00143065,0.00080373,0.05556251,-0.0
 6353374,-0.00437688,-0.00022415,-0.00405459,0.00224540,0.00026379,0.00
 051246,0.00016805,-0.00082158,0.00054715,-0.00042019,0.00114898,0.0000
 1816,-0.00054115,-0.00006841,0.00004362,0.00001697,-0.00082252,-0.0000
 5180,0.00018478,0.03829347,0.24974026,-0.00098512,-0.00190639,-0.00046
 681,-0.00087297,0.00060841,-0.00166663,0.00015968,-0.00009960,0.000689
 40,0.00014483,-0.00319839,0.00135879,0.00027442,0.00009587,-0.00001762
 ,-0.00143289,0.00014272,-0.00476136,0.00120346,0.00092984,0.00013421,0
 .00222282,0.00257846,-0.00392079,0.00442321,0.02415528,-0.01931870,0.0
 0400464,0.01746034,-0.01821604,0.00066258,-0.00030559,0.00023466,-0.00
 131335,0.00053780,-0.00079603,0.00200176,-0.00326228,-0.00368172,0.000
 10957,0.00016503,0.00038256,0.00072745,-0.00057707,-0.00028058,0.00127
 032,0.00187206,-0.00014256,0.01984185,-0.00849310,-0.01967388,0.002755
 78,-0.00117726,0.00304578,-0.00115435,-0.00058483,-0.00076446,-0.00096
 948,0.00052511,-0.00042923,-0.00054833,0.00048994,-0.00061314,0.000397
 06,-0.00038493,0.00048660,0.00039062,0.00041319,0.00009848,-0.04535683
 ,-0.03709495,0.40020141,-0.00024541,0.00005940,-0.00027720,0.00005815,
 0.00019456,-0.00002710,0.00009347,0.00008262,0.00014756,-0.00026654,-0
 .00005457,-0.00051432,0.00007228,-0.00006313,-0.00006924,0.00024741,0.
 00008208,0.00030761,-0.00043330,-0.00052569,0.00004018,-0.00005680,-0.
 00011604,-0.00023642,0.00155584,-0.00148562,0.00238922,-0.00075004,-0.
 00182692,0.00091809,0.00010569,-0.00026990,0.00012115,-0.00019785,0.00
 013351,0.00001179,0.00247319,0.00214656,-0.00187948,0.00003619,0.00002
 590,-0.00000111,0.00017486,-0.00015662,-0.00006822,-0.00017512,0.00004
 653,0.00029762,-0.00310242,-0.00151672,0.00576555,0.00009075,0.0002457
 0,-0.00037124,-0.00021304,-0.00009766,-0.00002113,0.00005175,-0.000139
 73,0.00004783,-0.00036837,0.00016165,-0.00002512,0.00011034,-0.0000954
 0,0.00011980,0.00027278,-0.00002596,0.00009231,-0.05868412,-0.01951519
 ,0.08502672,0.05132937,0.00011322,-0.00006422,-0.00044478,0.00015916,0
 .00028499,-0.00012983,-0.00014007,0.00017818,-0.00018073,-0.00015733,0
 .00009497,-0.00036984,-0.00004154,0.00001989,-0.00002947,0.00033324,-0
 .00042807,0.00087498,0.00047682,0.00001136,0.00034330,0.00001094,-0.00
 002672,0.00008374,-0.00025047,-0.00034822,0.00065323,-0.00030058,0.003
 18184,0.00387854,0.00001036,-0.00019457,0.00024752,-0.00013549,0.00008
 378,-0.00007411,-0.00076416,0.00152541,-0.00237628,-0.00000758,0.00002
 516,0.00001421,0.00007600,-0.00007579,-0.00004972,0.00000516,0.0000091
 8,0.00008776,-0.00285189,0.00281923,-0.00296968,-0.00002728,0.00036586
 ,-0.00043801,-0.00009023,-0.00005115,-0.00000978,0.00005008,-0.0000339
 3,0.00008101,-0.00005596,0.00007542,-0.00001452,0.00004777,-0.00004760
 ,0.00004926,0.00010753,-0.00000003,0.00004628,-0.02062469,-0.02916154,
 0.04596955,0.01869538,0.01929121,0.00062333,0.00018795,0.00080553,0.00
 020608,-0.00038737,0.00053161,-0.00013757,0.00005491,-0.00024063,0.000
 44014,0.00071023,-0.00020723,-0.00037830,0.00002949,0.00010941,0.00008
 358,0.00012761,0.00090149,-0.00078000,0.00058010,0.00045952,-0.0002164
 5,-0.00010118,0.00063754,0.00038549,-0.00066053,-0.00280310,-0.0000472
 3,0.00404776,0.00052297,-0.00074580,0.00011385,-0.00006430,0.00071204,
 -0.00037745,0.00000961,0.00829891,0.00334802,-0.00560776,-0.00013129,-
 0.00007578,0.00002936,-0.00050176,0.00043660,0.00021006,-0.00011044,-0
 .00068319,0.00048999,0.00492228,-0.00378776,0.00068022,-0.00189070,-0.
 00059447,-0.00031286,0.00080376,0.00039951,0.00033683,0.00012790,-0.00
 010359,-0.00008528,0.00091091,-0.00032985,0.00013518,-0.00029436,0.000
 27362,-0.00032852,-0.00062258,0.00000505,-0.00023337,0.08535995,0.0432
 5926,-0.22323411,-0.09264377,-0.04611644,0.23509113,-0.00061085,-0.000
 60387,-0.00119410,0.00141201,0.00090426,0.00006345,0.00018885,0.000008
 34,0.00001994,-0.00084132,-0.00214078,0.00104954,0.00025516,0.00000188
 ,-0.00000199,0.00025634,0.00043062,-0.00018458,0.00018802,-0.00050538,
 -0.00000049,-0.00205086,-0.00092953,0.00123068,-0.01489882,-0.00971823
 ,0.00273981,-0.00223149,-0.00415704,-0.00030013,0.00018817,0.00280253,
 -0.00138560,0.00052785,0.00029172,0.00087547,-0.00768512,-0.00019671,-
 0.00316633,0.00007275,-0.00025019,-0.00053734,-0.00012215,-0.00005815,
 0.00007132,0.00026605,0.00011802,0.00001875,-0.00962552,-0.00126121,-0
 .00032127,0.00057733,-0.00003776,-0.00084050,-0.00004572,-0.00002368,-
 0.00006708,0.00041617,-0.00003483,0.00063435,-0.00086367,-0.00000920,0
 .00043611,-0.00003053,0.00004401,-0.00004763,0.00067748,-0.00004336,0.
 00011181,-0.07705336,-0.03947059,-0.07298342,0.00782093,0.00536160,-0.
 00437413,0.10321232,-0.00226102,-0.00212977,-0.00093410,-0.00007672,0.
 00064165,0.00098703,0.00022991,0.00019520,0.00008308,-0.00023857,-0.00
 276922,0.00194006,0.00003210,0.00013065,0.00005488,0.00150273,-0.00158
 909,0.00147074,0.00034127,-0.00029786,0.00021822,-0.00137165,0.0011365
 3,0.00074011,-0.01367947,-0.01901357,0.00522001,-0.00361633,-0.0030157
 2,-0.00624682,0.00231598,-0.00480060,0.00032130,-0.00031042,-0.0003065
 4,-0.00033189,-0.00037053,0.00158873,-0.00014582,0.00011600,0.00011320
 ,0.00022371,0.00005972,0.00006344,0.00003399,0.00060430,0.00035125,-0.
 00026053,-0.00027449,0.00617716,0.00416220,-0.00003824,0.00030105,0.00
 003254,-0.00003830,-0.00007307,0.00003679,-0.00005125,-0.00009455,-0.0
 0042568,-0.00001565,0.00009368,0.00007246,0.00004823,-0.00004259,0.000
 06382,0.00044884,0.00014366,0.00010462,-0.03684923,-0.03799285,-0.0388
 5921,0.00401525,0.00246534,-0.00035633,0.04947753,0.05872389,-0.000815
 85,-0.00014124,-0.00046358,0.00201078,0.00573323,-0.00418050,0.0003846
 9,0.00039897,0.00087412,0.00039401,0.00699379,-0.00245543,0.00029299,-
 0.00038958,-0.00017924,0.00052762,-0.00008089,-0.00107436,0.00013534,-
 0.00054170,-0.00061652,0.00142635,0.00142355,-0.00014907,-0.00316476,-
 0.01877433,-0.00075670,-0.00024832,-0.00734376,0.00437100,-0.00187659,
 0.00325811,-0.00137853,0.00089198,-0.00012229,0.00221686,0.00027966,0.
 00450671,0.00124979,0.00006240,-0.00013578,-0.00084533,-0.00020726,0.0
 0011314,0.00006996,-0.00009157,-0.00052138,0.00021204,-0.01198155,0.00
 311704,0.00380164,0.00058820,0.00089924,-0.00116747,-0.00012458,-0.000
 06843,-0.00001719,0.00045884,0.00019734,0.00067007,-0.00154636,0.00007
 926,0.00080314,-0.00004539,0.00008773,-0.00008916,0.00121464,-0.000181
 37,-0.00000106,-0.06756757,-0.03117602,-0.10864821,0.00084892,0.000873
 82,-0.00783329,0.07815336,0.03179484,0.11558700\\-0.00001282,-0.000031
 86,0.00000073,-0.00000505,0.00000554,-0.00000866,0.00000412,0.00002644
 ,-0.00000960,-0.00000929,-0.00001112,-0.00000780,0.00000946,0.00000249
 ,0.00000126,0.00001085,0.00002152,0.00000147,-0.00000551,0.00000397,-0
 .00001522,-0.00004040,0.00000173,0.00000738,0.00003050,0.00002078,0.00
 002025,0.00000042,-0.00000111,-0.00001835,-0.00000728,-0.00000698,-0.0
 0000914,0.00000366,-0.00000198,0.00000730,0.00006001,0.00001957,0.0000
 0486,0.00000256,-0.00000074,-0.00000435,-0.00000104,0.00000061,-0.0000
 0414,-0.00000748,-0.00000477,0.00001672,0.00000136,-0.00000592,-0.0000
 0217,-0.00000744,0.00000662,-0.00000794,0.00000207,-0.00000559,0.00000
 971,-0.00000304,-0.00001262,0.00000289,-0.00000266,0.00000750,0.000001
 41,0.00000043,-0.00000260,-0.00000387,0.00000020,-0.00000698,-0.000001
 37,-0.00000119,-0.00001296,-0.00000106,-0.00000466,-0.00001150,0.00000
 316,-0.00001776,-0.00000005,0.00001652\\\@
 The archive entry for this job was punched.


 IF I AM NOT FOR MYSELF, WHO WILL BE?
 BUT IF I AM ONLY FOR MYSELF, WHAT AM I?
 THOUGH A SEEKER SINCE MY BIRTH,
 HERE IS ALL I'VE LEARNED ON EARTH,
 THIS IS THE GIST OF WHAT I KNOW:
 GIVE ADVICE AND BUY A FOE.

 PRESSED FOR RULES AND VERITIES,
 ALL I RECOLLECT ARE THESE:
 FEED A COLD TO STARVE A FEVER,
 ARGUE WITH NO TRUE-BELIEVER.
 THINK-TOO-LONG IS NEVER-ACT,
 SCRATCH A MYTH AND FIND A FACT.

 STITCH IN TIME SAVES TWENTY STITCHES,
 GIVE THE RICH TO PLEASE THEM, RICHES.
 GIVE TO LOVE YOU HEARTH AND HALL,
 BUT DO NOT GIVE ADVICE AT ALL.

                                  -- HILLEL
 Job cpu time:       0 days  6 hours 11 minutes  5.9 seconds.
 Elapsed time:       0 days  0 hours  8 minutes  6.6 seconds.
 File lengths (MBytes):  RWF=   1100 Int=      0 D2E=      0 Chk=     23 Scr=      2
 Normal termination of Gaussian 16 at Sat Dec 10 12:48:53 2022.
