 Entering Gaussian System, Link 0=g16
 Initial command:
 /home/chesagar/softwares/G16_AVX2//g16/l1.exe "/home/chesagar/scratch/Gau-39861.inp" -scrdir="/home/chesagar/scratch/"
 Entering Link 1 = /home/chesagar/softwares/G16_AVX2//g16/l1.exe PID=     39863.
  
 Copyright (c) 1988-2019, Gaussian, Inc.  All Rights Reserved.
  
 This is part of the Gaussian(R) 16 program.  It is based on
 the Gaussian(R) 09 system (copyright 2009, Gaussian, Inc.),
 the Gaussian(R) 03 system (copyright 2003, Gaussian, Inc.),
 the Gaussian(R) 98 system (copyright 1998, Gaussian, Inc.),
 the Gaussian(R) 94 system (copyright 1995, Gaussian, Inc.),
 the Gaussian 92(TM) system (copyright 1992, Gaussian, Inc.),
 the Gaussian 90(TM) system (copyright 1990, Gaussian, Inc.),
 the Gaussian 88(TM) system (copyright 1988, Gaussian, Inc.),
 the Gaussian 86(TM) system (copyright 1986, Carnegie Mellon
 University), and the Gaussian 82(TM) system (copyright 1983,
 Carnegie Mellon University). Gaussian is a federally registered
 trademark of Gaussian, Inc.
  
 This software contains proprietary and confidential information,
 including trade secrets, belonging to Gaussian, Inc.
  
 This software is provided under written license and may be
 used, copied, transmitted, or stored only in accord with that
 written license.
  
 The following legend is applicable only to US Government
 contracts under FAR:
  
                    RESTRICTED RIGHTS LEGEND
  
 Use, reproduction and disclosure by the US Government is
 subject to restrictions as set forth in subparagraphs (a)
 and (c) of the Commercial Computer Software - Restricted
 Rights clause in FAR 52.227-19.
  
 Gaussian, Inc.
 340 Quinnipiac St., Bldg. 40, Wallingford CT 06492
  
  
 ---------------------------------------------------------------
 Warning -- This program may not be used in any manner that
 competes with the business of Gaussian, Inc. or will provide
 assistance to any competitor of Gaussian, Inc.  The licensee
 of this program is prohibited from giving any competitor of
 Gaussian, Inc. access to this program.  By using this program,
 the user acknowledges that Gaussian, Inc. is engaged in the
 business of creating and licensing software in the field of
 computational chemistry and represents and warrants to the
 licensee that it is not a competitor of Gaussian, Inc. and that
 it will not use this program in any manner prohibited above.
 ---------------------------------------------------------------
  

 Cite this work as:
 Gaussian 16, Revision C.01,
 M. J. Frisch, G. W. Trucks, H. B. Schlegel, G. E. Scuseria, 
 M. A. Robb, J. R. Cheeseman, G. Scalmani, V. Barone, 
 G. A. Petersson, H. Nakatsuji, X. Li, M. Caricato, A. V. Marenich, 
 J. Bloino, B. G. Janesko, R. Gomperts, B. Mennucci, H. P. Hratchian, 
 J. V. Ortiz, A. F. Izmaylov, J. L. Sonnenberg, D. Williams-Young, 
 F. Ding, F. Lipparini, F. Egidi, J. Goings, B. Peng, A. Petrone, 
 T. Henderson, D. Ranasinghe, V. G. Zakrzewski, J. Gao, N. Rega, 
 G. Zheng, W. Liang, M. Hada, M. Ehara, K. Toyota, R. Fukuda, 
 J. Hasegawa, M. Ishida, T. Nakajima, Y. Honda, O. Kitao, H. Nakai, 
 T. Vreven, K. Throssell, J. A. Montgomery, Jr., J. E. Peralta, 
 F. Ogliaro, M. J. Bearpark, J. J. Heyd, E. N. Brothers, K. N. Kudin, 
 V. N. Staroverov, T. A. Keith, R. Kobayashi, J. Normand, 
 K. Raghavachari, A. P. Rendell, J. C. Burant, S. S. Iyengar, 
 J. Tomasi, M. Cossi, J. M. Millam, M. Klene, C. Adamo, R. Cammi, 
 J. W. Ochterski, R. L. Martin, K. Morokuma, O. Farkas, 
 J. B. Foresman, and D. J. Fox, Gaussian, Inc., Wallingford CT, 2019.
 
 ******************************************
 Gaussian 16:  ES64L-G16RevC.01  3-Jul-2019
                11-Dec-2022 
 ******************************************
 %nprocshared=46
 Will use up to   46 processors via shared memory.
 %mem=100GB
 ---------------------------------------
 # opt freq b3lyp/gen nosymm pseudo=read
 ---------------------------------------
 1/18=20,19=15,26=3,38=1/1,3;
 2/9=110,12=2,15=1,17=6,18=5,40=1/2;
 3/5=7,11=2,16=1,17=8,25=1,30=1,71=1,74=-5/1,2,3;
 4//1;
 5/5=2,38=5/2;
 6/7=2,8=2,9=2,10=2,28=1/1;
 7/30=1/1,2,3,16;
 1/18=20,19=15,26=3/3(2);
 2/9=110,15=1/2;
 99//99;
 2/9=110,15=1/2;
 3/5=7,6=1,11=2,16=1,17=8,25=1,30=1,71=1,74=-5,82=7/1,2,3;
 4/5=5,16=3,69=1/1;
 5/5=2,38=5/2;
 7/30=1/1,2,3,16;
 1/18=20,19=15,26=3/3(-5);
 2/9=110,15=1/2;
 6/7=2,8=2,9=2,10=2,19=2,28=1/1;
 99/9=1/99;
 -------------------
 Title Card Required
 -------------------
 Symbolic Z-matrix:
 Charge =  0 Multiplicity = 1
 42                    0.4067    1.85755   12.12291 
 16                    1.30174   4.00068   11.81831 
 16                   -1.61911   2.40892   13.21352 
 16                   -0.48394   1.04709   10.04849 
 16                    2.24318   0.28142   11.32933 
 42                   -2.1179    2.54438   10.93839 
 16                   -3.39221   1.75564   8.95082 
 16                   -1.52445   4.79607   10.56161 
 42                    0.28248   3.3214    9.68731 
 16                   -0.83105   2.94457   7.35457 
 16                    2.30486   2.34277   8.60499 
 42                    2.86982   2.60689   10.7814 
 42                   -2.58871   4.10335   8.61342 
 16                    4.37165   2.43404   13.01465 
 16                    4.70555   4.14844   10.43032 
 16                   -4.69949   5.15832   8.91002 
 16                   -2.04109   6.33274   7.58351 
 42                   -5.01722   3.10291   9.86968 
 16                   -6.96492   2.36124   9.46715 
 16                   -4.46399   3.21562   11.99504 
 42                    2.92466   0.83183   13.46934 
 16                    3.79017  -0.78908   14.52601 
 16                    1.13792   1.65695   14.52168 
 42                   -0.23954   5.15755   7.09897 
 16                    0.37853   5.53625   5.11533 
 16                    1.30282   5.6021    8.78083 
 42                    3.64755   4.91632   8.53703 
 16                    4.46715   4.15212   6.67426 
 16                    4.61944   6.83574   8.2992 
 

 GradGradGradGradGradGradGradGradGradGradGradGradGradGradGradGradGradGrad
 Berny optimization.
 Initialization pass.
                           ----------------------------
                           !    Initial Parameters    !
                           ! (Angstroms and Degrees)  !
 --------------------------                            --------------------------
 ! Name  Definition              Value          Derivative Info.                !
 --------------------------------------------------------------------------------
 ! R1    R(1,2)                  2.3424         estimate D2E/DX2                !
 ! R2    R(1,3)                  2.3659         estimate D2E/DX2                !
 ! R3    R(1,4)                  2.3986         estimate D2E/DX2                !
 ! R4    R(1,5)                  2.5469         estimate D2E/DX2                !
 ! R5    R(1,6)                  2.872          estimate D2E/DX2                !
 ! R6    R(1,9)                  2.8444         estimate D2E/DX2                !
 ! R7    R(1,12)                 2.9031         estimate D2E/DX2                !
 ! R8    R(1,21)                 3.034          estimate D2E/DX2                !
 ! R9    R(1,23)                 2.5158         estimate D2E/DX2                !
 ! R10   R(2,9)                  2.4579         estimate D2E/DX2                !
 ! R11   R(2,12)                 2.3402         estimate D2E/DX2                !
 ! R12   R(3,6)                  2.3331         estimate D2E/DX2                !
 ! R13   R(4,6)                  2.3882         estimate D2E/DX2                !
 ! R14   R(4,9)                  2.427          estimate D2E/DX2                !
 ! R15   R(5,12)                 2.47           estimate D2E/DX2                !
 ! R16   R(5,21)                 2.3124         estimate D2E/DX2                !
 ! R17   R(6,7)                  2.4893         estimate D2E/DX2                !
 ! R18   R(6,8)                  2.3589         estimate D2E/DX2                !
 ! R19   R(6,9)                  2.8162         estimate D2E/DX2                !
 ! R20   R(6,13)                 2.8386         estimate D2E/DX2                !
 ! R21   R(6,20)                 2.6592         estimate D2E/DX2                !
 ! R22   R(7,13)                 2.5042         estimate D2E/DX2                !
 ! R23   R(7,18)                 2.3022         estimate D2E/DX2                !
 ! R24   R(8,9)                  2.4908         estimate D2E/DX2                !
 ! R25   R(8,13)                 2.3255         estimate D2E/DX2                !
 ! R26   R(9,10)                 2.6122         estimate D2E/DX2                !
 ! R27   R(9,11)                 2.4938         estimate D2E/DX2                !
 ! R28   R(9,12)                 2.8986         estimate D2E/DX2                !
 ! R29   R(9,26)                 2.6579         estimate D2E/DX2                !
 ! R30   R(10,13)                2.4529         estimate D2E/DX2                !
 ! R31   R(10,24)                2.3049         estimate D2E/DX2                !
 ! R32   R(11,12)                2.264          estimate D2E/DX2                !
 ! R33   R(12,14)                2.6968         estimate D2E/DX2                !
 ! R34   R(12,15)                2.4227         estimate D2E/DX2                !
 ! R35   R(13,16)                2.3783         estimate D2E/DX2                !
 ! R36   R(13,17)                2.5161         estimate D2E/DX2                !
 ! R37   R(13,18)                2.9115         estimate D2E/DX2                !
 ! R38   R(13,24)                2.9872         estimate D2E/DX2                !
 ! R39   R(14,21)                2.2063         estimate D2E/DX2                !
 ! R40   R(15,27)                2.3008         estimate D2E/DX2                !
 ! R41   R(16,18)                2.2905         estimate D2E/DX2                !
 ! R42   R(17,24)                2.2049         estimate D2E/DX2                !
 ! R43   R(18,19)                2.1226         estimate D2E/DX2                !
 ! R44   R(18,20)                2.1991         estimate D2E/DX2                !
 ! R45   R(21,22)                2.1197         estimate D2E/DX2                !
 ! R46   R(21,23)                2.2317         estimate D2E/DX2                !
 ! R47   R(24,25)                2.1119         estimate D2E/DX2                !
 ! R48   R(24,26)                2.3249         estimate D2E/DX2                !
 ! R49   R(26,27)                2.4551         estimate D2E/DX2                !
 ! R50   R(27,28)                2.1739         estimate D2E/DX2                !
 ! R51   R(27,29)                2.1646         estimate D2E/DX2                !
 ! A1    A(2,1,3)              100.0144         estimate D2E/DX2                !
 ! A2    A(2,1,4)              109.7892         estimate D2E/DX2                !
 ! A3    A(2,1,5)              104.487          estimate D2E/DX2                !
 ! A4    A(2,1,6)               93.6376         estimate D2E/DX2                !
 ! A5    A(2,1,21)              92.8608         estimate D2E/DX2                !
 ! A6    A(2,1,23)              94.9268         estimate D2E/DX2                !
 ! A7    A(3,1,4)               99.1766         estimate D2E/DX2                !
 ! A8    A(3,1,5)              154.8616         estimate D2E/DX2                !
 ! A9    A(3,1,9)              103.7328         estimate D2E/DX2                !
 ! A10   A(3,1,12)             151.5634         estimate D2E/DX2                !
 ! A11   A(3,1,21)             125.7919         estimate D2E/DX2                !
 ! A12   A(3,1,23)              80.0912         estimate D2E/DX2                !
 ! A13   A(4,1,5)               77.8288         estimate D2E/DX2                !
 ! A14   A(4,1,12)              90.1499         estimate D2E/DX2                !
 ! A15   A(4,1,21)             125.2911         estimate D2E/DX2                !
 ! A16   A(4,1,23)             154.9058         estimate D2E/DX2                !
 ! A17   A(5,1,6)              130.7935         estimate D2E/DX2                !
 ! A18   A(5,1,9)               94.7708         estimate D2E/DX2                !
 ! A19   A(5,1,23)              92.1875         estimate D2E/DX2                !
 ! A20   A(6,1,12)             119.5708         estimate D2E/DX2                !
 ! A21   A(6,1,23)             131.8993         estimate D2E/DX2                !
 ! A22   A(9,1,21)             126.1739         estimate D2E/DX2                !
 ! A23   A(9,1,23)             150.4818         estimate D2E/DX2                !
 ! A24   A(12,1,21)             65.6818         estimate D2E/DX2                !
 ! A25   A(12,1,23)            102.3908         estimate D2E/DX2                !
 ! A26   A(12,5,21)             84.6307         estimate D2E/DX2                !
 ! A27   A(1,6,7)              134.7112         estimate D2E/DX2                !
 ! A28   A(1,6,8)               94.187          estimate D2E/DX2                !
 ! A29   A(1,6,13)             127.9483         estimate D2E/DX2                !
 ! A30   A(1,6,20)             132.2235         estimate D2E/DX2                !
 ! A31   A(3,6,4)              100.4102         estimate D2E/DX2                !
 ! A32   A(3,6,7)              150.4198         estimate D2E/DX2                !
 ! A33   A(3,6,8)               99.0559         estimate D2E/DX2                !
 ! A34   A(3,6,9)              105.4863         estimate D2E/DX2                !
 ! A35   A(3,6,13)             150.0037         estimate D2E/DX2                !
 ! A36   A(3,6,20)              79.3848         estimate D2E/DX2                !
 ! A37   A(4,6,7)               81.6086         estimate D2E/DX2                !
 ! A38   A(4,6,8)              111.5195         estimate D2E/DX2                !
 ! A39   A(4,6,13)              98.7777         estimate D2E/DX2                !
 ! A40   A(4,6,20)             155.4969         estimate D2E/DX2                !
 ! A41   A(7,6,8)              107.6808         estimate D2E/DX2                !
 ! A42   A(7,6,9)               99.7326         estimate D2E/DX2                !
 ! A43   A(7,6,20)              86.882          estimate D2E/DX2                !
 ! A44   A(8,6,20)              92.5493         estimate D2E/DX2                !
 ! A45   A(9,6,13)              68.0358         estimate D2E/DX2                !
 ! A46   A(9,6,20)             149.1916         estimate D2E/DX2                !
 ! A47   A(13,6,20)             92.3209         estimate D2E/DX2                !
 ! A48   A(6,7,18)              81.7917         estimate D2E/DX2                !
 ! A49   A(9,8,13)              82.0434         estimate D2E/DX2                !
 ! A50   A(1,9,8)               92.0521         estimate D2E/DX2                !
 ! A51   A(1,9,10)             135.1577         estimate D2E/DX2                !
 ! A52   A(1,9,11)              97.7156         estimate D2E/DX2                !
 ! A53   A(1,9,26)             135.7983         estimate D2E/DX2                !
 ! A54   A(2,9,4)              105.1237         estimate D2E/DX2                !
 ! A55   A(2,9,6)               92.5532         estimate D2E/DX2                !
 ! A56   A(2,9,8)               80.3798         estimate D2E/DX2                !
 ! A57   A(2,9,11)              98.5365         estimate D2E/DX2                !
 ! A58   A(2,9,26)              84.2238         estimate D2E/DX2                !
 ! A59   A(4,9,8)              105.8712         estimate D2E/DX2                !
 ! A60   A(4,9,10)              82.1314         estimate D2E/DX2                !
 ! A61   A(4,9,11)              87.3028         estimate D2E/DX2                !
 ! A62   A(4,9,12)              89.6972         estimate D2E/DX2                !
 ! A63   A(6,9,10)              89.632          estimate D2E/DX2                !
 ! A64   A(6,9,11)             140.8735         estimate D2E/DX2                !
 ! A65   A(6,9,12)             121.6771         estimate D2E/DX2                !
 ! A66   A(6,9,26)             135.6826         estimate D2E/DX2                !
 ! A67   A(8,9,10)              95.1421         estimate D2E/DX2                !
 ! A68   A(8,9,12)             131.3756         estimate D2E/DX2                !
 ! A69   A(8,9,26)              83.6949         estimate D2E/DX2                !
 ! A70   A(10,9,11)             84.3479         estimate D2E/DX2                !
 ! A71   A(10,9,12)            133.0015         estimate D2E/DX2                !
 ! A72   A(10,9,26)             89.0181         estimate D2E/DX2                !
 ! A73   A(11,9,26)             82.9577         estimate D2E/DX2                !
 ! A74   A(12,9,26)             89.8616         estimate D2E/DX2                !
 ! A75   A(9,10,13)             77.2326         estimate D2E/DX2                !
 ! A76   A(9,10,24)             81.4383         estimate D2E/DX2                !
 ! A77   A(1,12,11)            101.6761         estimate D2E/DX2                !
 ! A78   A(1,12,14)             94.2026         estimate D2E/DX2                !
 ! A79   A(1,12,15)            150.9359         estimate D2E/DX2                !
 ! A80   A(2,12,5)             107.0046         estimate D2E/DX2                !
 ! A81   A(2,12,11)            109.1602         estimate D2E/DX2                !
 ! A82   A(2,12,14)             92.5452         estimate D2E/DX2                !
 ! A83   A(2,12,15)            101.1257         estimate D2E/DX2                !
 ! A84   A(5,12,9)              95.1264         estimate D2E/DX2                !
 ! A85   A(5,12,11)             92.2985         estimate D2E/DX2                !
 ! A86   A(5,12,14)             84.1016         estimate D2E/DX2                !
 ! A87   A(5,12,15)            145.4316         estimate D2E/DX2                !
 ! A88   A(9,12,14)            145.6356         estimate D2E/DX2                !
 ! A89   A(9,12,15)            117.6978         estimate D2E/DX2                !
 ! A90   A(11,12,14)           158.0574         estimate D2E/DX2                !
 ! A91   A(11,12,15)            97.1234         estimate D2E/DX2                !
 ! A92   A(14,12,15)            74.8599         estimate D2E/DX2                !
 ! A93   A(6,13,10)             92.4098         estimate D2E/DX2                !
 ! A94   A(6,13,16)            106.7788         estimate D2E/DX2                !
 ! A95   A(6,13,17)            141.7936         estimate D2E/DX2                !
 ! A96   A(6,13,18)             66.1852         estimate D2E/DX2                !
 ! A97   A(6,13,24)            118.5957         estimate D2E/DX2                !
 ! A98   A(7,13,8)             108.2539         estimate D2E/DX2                !
 ! A99   A(7,13,10)             81.7307         estimate D2E/DX2                !
 ! A100  A(7,13,16)             96.5627         estimate D2E/DX2                !
 ! A101  A(7,13,17)            162.8719         estimate D2E/DX2                !
 ! A102  A(7,13,24)            130.6527         estimate D2E/DX2                !
 ! A103  A(8,13,10)            104.0476         estimate D2E/DX2                !
 ! A104  A(8,13,16)             99.7622         estimate D2E/DX2                !
 ! A105  A(8,13,17)             88.8182         estimate D2E/DX2                !
 ! A106  A(8,13,18)             97.0427         estimate D2E/DX2                !
 ! A107  A(8,13,24)             87.6904         estimate D2E/DX2                !
 ! A108  A(10,13,16)           155.4373         estimate D2E/DX2                !
 ! A109  A(10,13,17)            93.0124         estimate D2E/DX2                !
 ! A110  A(10,13,18)           131.0565         estimate D2E/DX2                !
 ! A111  A(16,13,17)            81.4413         estimate D2E/DX2                !
 ! A112  A(16,13,24)           127.2024         estimate D2E/DX2                !
 ! A113  A(17,13,18)           131.5001         estimate D2E/DX2                !
 ! A114  A(12,14,21)            81.4875         estimate D2E/DX2                !
 ! A115  A(12,15,27)            89.0362         estimate D2E/DX2                !
 ! A116  A(7,18,16)            105.0703         estimate D2E/DX2                !
 ! A117  A(7,18,19)            111.5622         estimate D2E/DX2                !
 ! A118  A(7,18,20)            103.7782         estimate D2E/DX2                !
 ! A119  A(13,18,19)           143.4759         estimate D2E/DX2                !
 ! A120  A(13,18,20)           100.9277         estimate D2E/DX2                !
 ! A121  A(16,18,19)           111.1845         estimate D2E/DX2                !
 ! A122  A(16,18,20)           108.9073         estimate D2E/DX2                !
 ! A123  A(19,18,20)           115.5959         estimate D2E/DX2                !
 ! A124  A(6,20,18)             79.92           estimate D2E/DX2                !
 ! A125  A(1,21,14)            101.966          estimate D2E/DX2                !
 ! A126  A(1,21,22)            144.9477         estimate D2E/DX2                !
 ! A127  A(5,21,14)            100.1029         estimate D2E/DX2                !
 ! A128  A(5,21,22)            113.5572         estimate D2E/DX2                !
 ! A129  A(5,21,23)            106.765          estimate D2E/DX2                !
 ! A130  A(14,21,22)           112.9713         estimate D2E/DX2                !
 ! A131  A(14,21,23)           110.7178         estimate D2E/DX2                !
 ! A132  A(22,21,23)           111.9974         estimate D2E/DX2                !
 ! A133  A(10,24,17)           106.1224         estimate D2E/DX2                !
 ! A134  A(10,24,25)           110.5747         estimate D2E/DX2                !
 ! A135  A(10,24,26)           105.8799         estimate D2E/DX2                !
 ! A136  A(13,24,25)           140.3187         estimate D2E/DX2                !
 ! A137  A(13,24,26)           102.8524         estimate D2E/DX2                !
 ! A138  A(17,24,25)           110.4846         estimate D2E/DX2                !
 ! A139  A(17,24,26)           106.3298         estimate D2E/DX2                !
 ! A140  A(25,24,26)           116.8095         estimate D2E/DX2                !
 ! A141  A(9,26,24)             80.0939         estimate D2E/DX2                !
 ! A142  A(9,26,27)             99.254          estimate D2E/DX2                !
 ! A143  A(24,26,27)           120.5533         estimate D2E/DX2                !
 ! A144  A(15,27,26)           116.7873         estimate D2E/DX2                !
 ! A145  A(15,27,28)           114.4839         estimate D2E/DX2                !
 ! A146  A(15,27,29)           100.364          estimate D2E/DX2                !
 ! A147  A(26,27,28)           122.913          estimate D2E/DX2                !
 ! A148  A(26,27,29)           101.0714         estimate D2E/DX2                !
 ! A149  A(28,27,29)            92.7682         estimate D2E/DX2                !
 ! A150  L(6,1,21,12,-1)       185.2526         estimate D2E/DX2                !
 ! A151  L(2,9,10,4,-1)        187.2551         estimate D2E/DX2                !
 ! A152  L(4,9,26,2,-1)        189.3475         estimate D2E/DX2                !
 ! A153  L(8,9,11,1,-1)        189.7677         estimate D2E/DX2                !
 ! A154  L(18,13,24,8,-1)      184.7332         estimate D2E/DX2                !
 ! A155  L(6,1,21,12,-2)       184.4522         estimate D2E/DX2                !
 ! A156  L(2,9,10,4,-2)        177.2201         estimate D2E/DX2                !
 ! A157  L(4,9,26,2,-2)        171.4643         estimate D2E/DX2                !
 ! A158  L(8,9,11,1,-2)        189.1233         estimate D2E/DX2                !
 ! A159  L(18,13,24,8,-2)      182.0269         estimate D2E/DX2                !
 ! D1    D(2,1,6,7)            118.3738         estimate D2E/DX2                !
 ! D2    D(2,1,6,8)             -1.6913         estimate D2E/DX2                !
 ! D3    D(2,1,6,13)            42.0225         estimate D2E/DX2                !
 ! D4    D(2,1,6,20)           -98.9679         estimate D2E/DX2                !
 ! D5    D(5,1,6,7)              5.6704         estimate D2E/DX2                !
 ! D6    D(5,1,6,8)           -114.3947         estimate D2E/DX2                !
 ! D7    D(5,1,6,13)           -70.6809         estimate D2E/DX2                !
 ! D8    D(5,1,6,20)           148.3287         estimate D2E/DX2                !
 ! D9    D(12,1,6,7)            71.1176         estimate D2E/DX2                !
 ! D10   D(12,1,6,8)           -48.9475         estimate D2E/DX2                !
 ! D11   D(12,1,6,13)           -5.2337         estimate D2E/DX2                !
 ! D12   D(12,1,6,20)         -146.224          estimate D2E/DX2                !
 ! D13   D(23,1,6,7)          -141.6838         estimate D2E/DX2                !
 ! D14   D(23,1,6,8)            98.251          estimate D2E/DX2                !
 ! D15   D(23,1,6,13)          141.9649         estimate D2E/DX2                !
 ! D16   D(23,1,6,20)            0.9745         estimate D2E/DX2                !
 ! D17   D(3,1,9,8)             16.7788         estimate D2E/DX2                !
 ! D18   D(3,1,9,10)           -82.6145         estimate D2E/DX2                !
 ! D19   D(3,1,9,11)          -172.3445         estimate D2E/DX2                !
 ! D20   D(3,1,9,26)            99.8418         estimate D2E/DX2                !
 ! D21   D(5,1,9,8)            179.6337         estimate D2E/DX2                !
 ! D22   D(5,1,9,10)            80.2404         estimate D2E/DX2                !
 ! D23   D(5,1,9,11)            -9.4895         estimate D2E/DX2                !
 ! D24   D(5,1,9,26)           -97.3033         estimate D2E/DX2                !
 ! D25   D(21,1,9,8)          -140.8168         estimate D2E/DX2                !
 ! D26   D(21,1,9,10)          119.7898         estimate D2E/DX2                !
 ! D27   D(21,1,9,11)           30.0599         estimate D2E/DX2                !
 ! D28   D(21,1,9,26)          -57.7538         estimate D2E/DX2                !
 ! D29   D(23,1,9,8)           -77.3549         estimate D2E/DX2                !
 ! D30   D(23,1,9,10)         -176.7483         estimate D2E/DX2                !
 ! D31   D(23,1,9,11)           93.5218         estimate D2E/DX2                !
 ! D32   D(23,1,9,26)            5.7081         estimate D2E/DX2                !
 ! D33   D(3,1,12,11)          -99.7158         estimate D2E/DX2                !
 ! D34   D(3,1,12,14)           95.5103         estimate D2E/DX2                !
 ! D35   D(3,1,12,15)           29.5191         estimate D2E/DX2                !
 ! D36   D(4,1,12,11)           10.1452         estimate D2E/DX2                !
 ! D37   D(4,1,12,14)         -154.6287         estimate D2E/DX2                !
 ! D38   D(4,1,12,15)          139.38           estimate D2E/DX2                !
 ! D39   D(6,1,12,11)          -36.1454         estimate D2E/DX2                !
 ! D40   D(6,1,12,14)          159.0807         estimate D2E/DX2                !
 ! D41   D(6,1,12,15)           93.0894         estimate D2E/DX2                !
 ! D42   D(21,1,12,11)         139.4024         estimate D2E/DX2                !
 ! D43   D(21,1,12,14)         -25.3715         estimate D2E/DX2                !
 ! D44   D(21,1,12,15)         -91.3628         estimate D2E/DX2                !
 ! D45   D(23,1,12,11)         168.2378         estimate D2E/DX2                !
 ! D46   D(23,1,12,14)           3.4638         estimate D2E/DX2                !
 ! D47   D(23,1,12,15)         -62.5274         estimate D2E/DX2                !
 ! D48   D(2,1,21,14)          -12.956          estimate D2E/DX2                !
 ! D49   D(2,1,21,22)          171.6921         estimate D2E/DX2                !
 ! D50   D(3,1,21,14)         -117.4739         estimate D2E/DX2                !
 ! D51   D(3,1,21,22)           67.1743         estimate D2E/DX2                !
 ! D52   D(4,1,21,14)          103.831          estimate D2E/DX2                !
 ! D53   D(4,1,21,22)          -71.5208         estimate D2E/DX2                !
 ! D54   D(9,1,21,14)           35.3681         estimate D2E/DX2                !
 ! D55   D(9,1,21,22)         -139.9838         estimate D2E/DX2                !
 ! D56   D(12,1,21,14)          32.2727         estimate D2E/DX2                !
 ! D57   D(12,1,21,22)        -143.0791         estimate D2E/DX2                !
 ! D58   D(1,2,9,12)           -80.5786         estimate D2E/DX2                !
 ! D59   D(1,4,6,9)             76.2367         estimate D2E/DX2                !
 ! D60   D(21,5,12,2)          -69.9137         estimate D2E/DX2                !
 ! D61   D(21,5,12,9)         -124.5285         estimate D2E/DX2                !
 ! D62   D(21,5,12,11)         179.2458         estimate D2E/DX2                !
 ! D63   D(21,5,12,14)          20.9509         estimate D2E/DX2                !
 ! D64   D(21,5,12,15)          73.1655         estimate D2E/DX2                !
 ! D65   D(12,5,21,14)         -26.2061         estimate D2E/DX2                !
 ! D66   D(12,5,21,22)        -146.8795         estimate D2E/DX2                !
 ! D67   D(12,5,21,23)          89.1958         estimate D2E/DX2                !
 ! D68   D(1,6,7,18)           171.8373         estimate D2E/DX2                !
 ! D69   D(3,6,7,18)            80.5568         estimate D2E/DX2                !
 ! D70   D(4,6,7,18)           176.8793         estimate D2E/DX2                !
 ! D71   D(8,6,7,18)           -73.1129         estimate D2E/DX2                !
 ! D72   D(9,6,7,18)          -131.1266         estimate D2E/DX2                !
 ! D73   D(20,6,7,18)           18.5711         estimate D2E/DX2                !
 ! D74   D(3,6,9,2)            -14.9969         estimate D2E/DX2                !
 ! D75   D(3,6,9,10)           172.4405         estimate D2E/DX2                !
 ! D76   D(3,6,9,11)            91.8781         estimate D2E/DX2                !
 ! D77   D(3,6,9,12)            29.5518         estimate D2E/DX2                !
 ! D78   D(3,6,9,26)           -99.3421         estimate D2E/DX2                !
 ! D79   D(7,6,9,2)           -179.3897         estimate D2E/DX2                !
 ! D80   D(7,6,9,10)             8.0477         estimate D2E/DX2                !
 ! D81   D(7,6,9,11)           -72.5147         estimate D2E/DX2                !
 ! D82   D(7,6,9,12)          -134.841          estimate D2E/DX2                !
 ! D83   D(7,6,9,26)            96.2651         estimate D2E/DX2                !
 ! D84   D(13,6,9,2)           134.0154         estimate D2E/DX2                !
 ! D85   D(13,6,9,10)          -38.5473         estimate D2E/DX2                !
 ! D86   D(13,6,9,11)         -119.1097         estimate D2E/DX2                !
 ! D87   D(13,6,9,12)          178.5641         estimate D2E/DX2                !
 ! D88   D(13,6,9,26)           49.6701         estimate D2E/DX2                !
 ! D89   D(20,6,9,2)            80.2476         estimate D2E/DX2                !
 ! D90   D(20,6,9,10)          -92.315          estimate D2E/DX2                !
 ! D91   D(20,6,9,11)         -172.8774         estimate D2E/DX2                !
 ! D92   D(20,6,9,12)          124.7964         estimate D2E/DX2                !
 ! D93   D(20,6,9,26)           -4.0976         estimate D2E/DX2                !
 ! D94   D(1,6,13,10)           45.006          estimate D2E/DX2                !
 ! D95   D(1,6,13,16)         -150.5263         estimate D2E/DX2                !
 ! D96   D(1,6,13,17)          -52.9557         estimate D2E/DX2                !
 ! D97   D(1,6,13,18)          179.4323         estimate D2E/DX2                !
 ! D98   D(1,6,13,24)            1.5552         estimate D2E/DX2                !
 ! D99   D(3,6,13,10)          124.5691         estimate D2E/DX2                !
 ! D100  D(3,6,13,16)          -70.9631         estimate D2E/DX2                !
 ! D101  D(3,6,13,17)           26.6075         estimate D2E/DX2                !
 ! D102  D(3,6,13,18)         -101.0046         estimate D2E/DX2                !
 ! D103  D(3,6,13,24)           81.1184         estimate D2E/DX2                !
 ! D104  D(4,6,13,10)           -4.7173         estimate D2E/DX2                !
 ! D105  D(4,6,13,16)          159.7505         estimate D2E/DX2                !
 ! D106  D(4,6,13,17)         -102.6789         estimate D2E/DX2                !
 ! D107  D(4,6,13,18)          129.709          estimate D2E/DX2                !
 ! D108  D(4,6,13,24)          -48.168          estimate D2E/DX2                !
 ! D109  D(9,6,13,10)           41.6209         estimate D2E/DX2                !
 ! D110  D(9,6,13,16)         -153.9114         estimate D2E/DX2                !
 ! D111  D(9,6,13,17)          -56.3407         estimate D2E/DX2                !
 ! D112  D(9,6,13,18)          176.0472         estimate D2E/DX2                !
 ! D113  D(9,6,13,24)           -1.8298         estimate D2E/DX2                !
 ! D114  D(20,6,13,10)        -162.802          estimate D2E/DX2                !
 ! D115  D(20,6,13,16)           1.6657         estimate D2E/DX2                !
 ! D116  D(20,6,13,17)          99.2363         estimate D2E/DX2                !
 ! D117  D(20,6,13,18)         -28.3757         estimate D2E/DX2                !
 ! D118  D(20,6,13,24)         153.7473         estimate D2E/DX2                !
 ! D119  D(1,6,20,18)         -174.0075         estimate D2E/DX2                !
 ! D120  D(3,6,20,18)         -173.2629         estimate D2E/DX2                !
 ! D121  D(4,6,20,18)          -81.4254         estimate D2E/DX2                !
 ! D122  D(7,6,20,18)          -19.5832         estimate D2E/DX2                !
 ! D123  D(8,6,20,18)           87.997          estimate D2E/DX2                !
 ! D124  D(9,6,20,18)           84.2566         estimate D2E/DX2                !
 ! D125  D(13,6,20,18)          35.7791         estimate D2E/DX2                !
 ! D126  D(6,7,18,16)           90.9778         estimate D2E/DX2                !
 ! D127  D(6,7,18,19)         -148.4378         estimate D2E/DX2                !
 ! D128  D(6,7,18,20)          -23.3246         estimate D2E/DX2                !
 ! D129  D(13,8,9,1)          -126.5199         estimate D2E/DX2                !
 ! D130  D(13,8,9,2)          -177.2063         estimate D2E/DX2                !
 ! D131  D(13,8,9,4)           -74.0904         estimate D2E/DX2                !
 ! D132  D(13,8,9,10)            9.1723         estimate D2E/DX2                !
 ! D133  D(13,8,9,12)         -178.1611         estimate D2E/DX2                !
 ! D134  D(13,8,9,26)           97.6106         estimate D2E/DX2                !
 ! D135  D(9,8,13,7)            75.7429         estimate D2E/DX2                !
 ! D136  D(9,8,13,10)          -10.0369         estimate D2E/DX2                !
 ! D137  D(9,8,13,16)          176.0463         estimate D2E/DX2                !
 ! D138  D(9,8,13,17)         -102.8468         estimate D2E/DX2                !
 ! D139  D(9,8,13,18)          125.4515         estimate D2E/DX2                !
 ! D140  D(9,8,13,24)          -56.5754         estimate D2E/DX2                !
 ! D141  D(1,9,10,13)           89.3054         estimate D2E/DX2                !
 ! D142  D(1,9,10,24)          168.5563         estimate D2E/DX2                !
 ! D143  D(4,9,10,13)           96.5247         estimate D2E/DX2                !
 ! D144  D(4,9,10,24)          175.7757         estimate D2E/DX2                !
 ! D145  D(6,9,10,13)           43.2944         estimate D2E/DX2                !
 ! D146  D(6,9,10,24)          122.5453         estimate D2E/DX2                !
 ! D147  D(8,9,10,13)           -8.8276         estimate D2E/DX2                !
 ! D148  D(8,9,10,24)           70.4233         estimate D2E/DX2                !
 ! D149  D(11,9,10,13)        -175.4271         estimate D2E/DX2                !
 ! D150  D(11,9,10,24)         -96.1762         estimate D2E/DX2                !
 ! D151  D(12,9,10,13)         178.6979         estimate D2E/DX2                !
 ! D152  D(12,9,10,24)        -102.0511         estimate D2E/DX2                !
 ! D153  D(26,9,10,13)         -92.4071         estimate D2E/DX2                !
 ! D154  D(26,9,10,24)         -13.1562         estimate D2E/DX2                !
 ! D155  D(4,9,12,5)            -2.6453         estimate D2E/DX2                !
 ! D156  D(4,9,12,14)          -89.6877         estimate D2E/DX2                !
 ! D157  D(4,9,12,15)          166.1236         estimate D2E/DX2                !
 ! D158  D(6,9,12,5)            42.8428         estimate D2E/DX2                !
 ! D159  D(6,9,12,14)          -44.1996         estimate D2E/DX2                !
 ! D160  D(6,9,12,15)         -148.3883         estimate D2E/DX2                !
 ! D161  D(8,9,12,5)           108.4422         estimate D2E/DX2                !
 ! D162  D(8,9,12,14)           21.3998         estimate D2E/DX2                !
 ! D163  D(8,9,12,15)          -82.789          estimate D2E/DX2                !
 ! D164  D(10,9,12,5)          -81.5684         estimate D2E/DX2                !
 ! D165  D(10,9,12,14)        -168.6108         estimate D2E/DX2                !
 ! D166  D(10,9,12,15)          87.2004         estimate D2E/DX2                !
 ! D167  D(26,9,12,5)         -170.0967         estimate D2E/DX2                !
 ! D168  D(26,9,12,14)         102.8609         estimate D2E/DX2                !
 ! D169  D(26,9,12,15)          -1.3278         estimate D2E/DX2                !
 ! D170  D(1,9,26,24)         -168.6405         estimate D2E/DX2                !
 ! D171  D(1,9,26,27)           71.7304         estimate D2E/DX2                !
 ! D172  D(2,9,26,24)         -163.1115         estimate D2E/DX2                !
 ! D173  D(2,9,26,27)           77.2594         estimate D2E/DX2                !
 ! D174  D(6,9,26,24)          -75.3757         estimate D2E/DX2                !
 ! D175  D(6,9,26,27)          164.9952         estimate D2E/DX2                !
 ! D176  D(8,9,26,24)          -82.1915         estimate D2E/DX2                !
 ! D177  D(8,9,26,27)          158.1794         estimate D2E/DX2                !
 ! D178  D(10,9,26,24)          13.0916         estimate D2E/DX2                !
 ! D179  D(10,9,26,27)        -106.5375         estimate D2E/DX2                !
 ! D180  D(11,9,26,24)          97.5174         estimate D2E/DX2                !
 ! D181  D(11,9,26,27)         -22.1116         estimate D2E/DX2                !
 ! D182  D(12,9,26,24)         146.1044         estimate D2E/DX2                !
 ! D183  D(12,9,26,27)          26.4753         estimate D2E/DX2                !
 ! D184  D(9,10,13,6)          -42.9156         estimate D2E/DX2                !
 ! D185  D(9,10,13,7)          -97.1372         estimate D2E/DX2                !
 ! D186  D(9,10,13,8)            9.7154         estimate D2E/DX2                !
 ! D187  D(9,10,13,16)         175.1644         estimate D2E/DX2                !
 ! D188  D(9,10,13,17)          99.25           estimate D2E/DX2                !
 ! D189  D(9,10,13,18)        -102.9624         estimate D2E/DX2                !
 ! D190  D(9,10,24,17)         -97.0447         estimate D2E/DX2                !
 ! D191  D(9,10,24,25)         143.1135         estimate D2E/DX2                !
 ! D192  D(9,10,24,26)          15.6935         estimate D2E/DX2                !
 ! D193  D(1,12,14,21)          32.8841         estimate D2E/DX2                !
 ! D194  D(2,12,14,21)          84.6752         estimate D2E/DX2                !
 ! D195  D(5,12,14,21)         -22.165          estimate D2E/DX2                !
 ! D196  D(9,12,14,21)          68.2967         estimate D2E/DX2                !
 ! D197  D(11,12,14,21)       -103.622          estimate D2E/DX2                !
 ! D198  D(15,12,14,21)       -174.4846         estimate D2E/DX2                !
 ! D199  D(1,12,15,27)        -100.7926         estimate D2E/DX2                !
 ! D200  D(2,12,15,27)         -81.8523         estimate D2E/DX2                !
 ! D201  D(5,12,15,27)         133.9825         estimate D2E/DX2                !
 ! D202  D(9,12,15,27)         -26.0251         estimate D2E/DX2                !
 ! D203  D(11,12,15,27)         29.3508         estimate D2E/DX2                !
 ! D204  D(14,12,15,27)       -171.4899         estimate D2E/DX2                !
 ! D205  D(6,13,18,19)        -143.928          estimate D2E/DX2                !
 ! D206  D(6,13,18,20)          35.7902         estimate D2E/DX2                !
 ! D207  D(8,13,18,19)         171.607          estimate D2E/DX2                !
 ! D208  D(8,13,18,20)          -8.6748         estimate D2E/DX2                !
 ! D209  D(10,13,18,19)        -72.8017         estimate D2E/DX2                !
 ! D210  D(10,13,18,20)        106.9165         estimate D2E/DX2                !
 ! D211  D(17,13,18,19)         76.9292         estimate D2E/DX2                !
 ! D212  D(17,13,18,20)       -103.3526         estimate D2E/DX2                !
 ! D213  D(6,13,24,25)         143.5392         estimate D2E/DX2                !
 ! D214  D(6,13,24,26)         -34.6731         estimate D2E/DX2                !
 ! D215  D(7,13,24,25)          76.5323         estimate D2E/DX2                !
 ! D216  D(7,13,24,26)        -101.6801         estimate D2E/DX2                !
 ! D217  D(8,13,24,25)        -171.2229         estimate D2E/DX2                !
 ! D218  D(8,13,24,26)          10.5648         estimate D2E/DX2                !
 ! D219  D(16,13,24,25)        -70.7111         estimate D2E/DX2                !
 ! D220  D(16,13,24,26)        111.0765         estimate D2E/DX2                !
 ! D221  D(12,14,21,1)         -31.9808         estimate D2E/DX2                !
 ! D222  D(12,14,21,5)          24.0272         estimate D2E/DX2                !
 ! D223  D(12,14,21,22)        145.1217         estimate D2E/DX2                !
 ! D224  D(12,14,21,23)        -88.3461         estimate D2E/DX2                !
 ! D225  D(12,15,27,26)         51.7375         estimate D2E/DX2                !
 ! D226  D(12,15,27,28)       -102.2545         estimate D2E/DX2                !
 ! D227  D(12,15,27,29)        159.8579         estimate D2E/DX2                !
 ! D228  D(7,18,20,6)           21.8757         estimate D2E/DX2                !
 ! D229  D(13,18,20,6)         -35.4558         estimate D2E/DX2                !
 ! D230  D(16,18,20,6)         -89.6531         estimate D2E/DX2                !
 ! D231  D(19,18,20,6)         144.3583         estimate D2E/DX2                !
 ! D232  D(10,24,26,9)         -15.4774         estimate D2E/DX2                !
 ! D233  D(10,24,26,27)         79.4836         estimate D2E/DX2                !
 ! D234  D(13,24,26,9)          39.6615         estimate D2E/DX2                !
 ! D235  D(13,24,26,27)        134.6224         estimate D2E/DX2                !
 ! D236  D(17,24,26,9)          97.1163         estimate D2E/DX2                !
 ! D237  D(17,24,26,27)       -167.9227         estimate D2E/DX2                !
 ! D238  D(25,24,26,9)        -139.0597         estimate D2E/DX2                !
 ! D239  D(25,24,26,27)        -44.0988         estimate D2E/DX2                !
 ! D240  D(9,26,27,15)         -58.2993         estimate D2E/DX2                !
 ! D241  D(9,26,27,28)          93.3176         estimate D2E/DX2                !
 ! D242  D(9,26,27,29)        -166.0055         estimate D2E/DX2                !
 ! D243  D(24,26,27,15)       -142.2015         estimate D2E/DX2                !
 ! D244  D(24,26,27,28)          9.4155         estimate D2E/DX2                !
 ! D245  D(24,26,27,29)        110.0923         estimate D2E/DX2                !
 --------------------------------------------------------------------------------
 Trust Radius=3.00D-01 FncErr=1.00D-07 GrdErr=1.00D-06 EigMax=2.50D+02 EigMin=1.00D-04
 Number of steps in this run=    174 maximum allowed number of steps=    174.
 GradGradGradGradGradGradGradGradGradGradGradGradGradGradGradGradGradGrad

                          Input orientation:                          
 ---------------------------------------------------------------------
 Center     Atomic      Atomic             Coordinates (Angstroms)
 Number     Number       Type             X           Y           Z
 ---------------------------------------------------------------------
      1         42           0        0.406698    1.857547   12.122908
      2         16           0        1.301735    4.000679   11.818307
      3         16           0       -1.619111    2.408922   13.213522
      4         16           0       -0.483936    1.047086   10.048488
      5         16           0        2.243181    0.281415   11.329332
      6         42           0       -2.117899    2.544384   10.938394
      7         16           0       -3.392206    1.755640    8.950817
      8         16           0       -1.524453    4.796069   10.561615
      9         42           0        0.282484    3.321400    9.687312
     10         16           0       -0.831048    2.944567    7.354566
     11         16           0        2.304861    2.342766    8.604986
     12         42           0        2.869822    2.606894   10.781404
     13         42           0       -2.588712    4.103350    8.613420
     14         16           0        4.371648    2.434038   13.014647
     15         16           0        4.705547    4.148435   10.430325
     16         16           0       -4.699489    5.158318    8.910015
     17         16           0       -2.041092    6.332742    7.583509
     18         42           0       -5.017220    3.102915    9.869678
     19         16           0       -6.964919    2.361241    9.467155
     20         16           0       -4.463994    3.215618   11.995042
     21         42           0        2.924659    0.831830   13.469341
     22         16           0        3.790167   -0.789078   14.526007
     23         16           0        1.137921    1.656949   14.521685
     24         42           0       -0.239543    5.157546    7.098972
     25         16           0        0.378530    5.536254    5.115325
     26         16           0        1.302821    5.602102    8.780827
     27         42           0        3.647554    4.916322    8.537026
     28         16           0        4.467150    4.152120    6.674256
     29         16           0        4.619439    6.835739    8.299196
 ---------------------------------------------------------------------
                    Distance matrix (angstroms):
                    1          2          3          4          5
     1  Mo   0.000000
     2  S    2.342411   0.000000
     3  S    2.365873   3.607167   0.000000
     4  S    2.398603   3.878736   3.627762   0.000000
     5  S    2.546885   3.867602   4.795181   3.108694   0.000000
     6  Mo   2.872004   3.819547   2.333098   2.388236   4.928781
     7  S    4.950174   5.941025   4.662756   3.188254   6.291920
     8  S    3.847323   3.193628   3.569319   3.924391   5.930140
     9  Mo   2.844367   2.457933   4.108873   2.427005   3.972666
    10  S    5.044870   5.058569   5.935935   3.313327   5.687005
    11  S    4.026690   3.752382   6.053143   3.397039   3.416875
    12  Mo   2.903125   2.340235   5.109296   3.770658   2.469971
    13  Mo   5.131532   5.041569   4.997214   3.978725   6.732797
    14  S    4.104676   3.648282   5.994112   5.856486   3.464743
    15  S    5.156851   3.678894   7.125545   6.057631   4.671756
    16  S    6.876839   6.768529   5.963898   5.997436   8.822582
    17  S    6.828264   5.877629   6.875426   6.036474   8.306909
    18  Mo   6.003905   6.673255   4.817682   4.980870   7.924953
    19  S    7.851590   8.749471   6.528032   6.638380   9.621979
    20  S    5.058097   5.821614   3.198251   4.932795   7.351116
    21  Mo   3.033992   3.924462   4.816483   4.833952   2.312360
    22  S    4.922131   6.038684   6.419510   6.456596   3.709158
    23  S    2.515762   3.581642   3.142925   4.797066   3.647576
    24  Mo   6.045457   5.097647   6.844404   5.065102   6.916395
    25  S    7.914537   6.938319   8.907950   6.725517   8.348900
    26  S    5.098454   3.433779   6.195391   5.054467   5.974016
    27  Mo   5.719948   4.136191   7.476258   5.858730   5.590313
    28  S    7.172178   6.041858   9.101830   6.748328   6.449661
    29  S    7.559785   5.606145   9.092129   7.912835   7.601808
                    6          7          8          9         10
     6  Mo   0.000000
     7  S    2.489265   0.000000
     8  S    2.358861   3.915020   0.000000
     9  Mo   2.816167   4.061696   2.490798   0.000000
    10  S    3.828832   3.243624   3.767497   2.612214   0.000000
    11  S    5.004623   5.737673   4.950832   2.493825   3.429233
    12  Mo   4.990583   6.579413   4.914310   2.898599   5.055065
    13  Mo   2.838581   2.504233   2.325504   3.163614   2.452932
    14  S    6.814486   8.789333   6.808859   5.346011   7.704882
    15  S    7.027840   8.572515   6.264947   4.560651   6.446974
    16  S    4.196615   3.645390   3.597202   5.366425   4.720694
    17  S    5.060910   4.964363   3.390781   4.346628   3.605045
    18  Mo   3.140091   2.302200   3.942711   5.307340   4.886195
    19  S    5.068697   3.660278   6.060107   7.314043   6.513653
    20  S    2.659177   3.542255   3.632277   5.278812   5.899643
    21  Mo   5.896264   7.821334   6.630585   5.242403   7.480606
    22  S    7.673863   9.441653   8.669225   7.253471   9.312642
    23  S    4.922182   7.180972   5.711783   5.183949   7.543368
    24  Mo   5.009790   4.994154   3.711005   3.216123   2.304882
    25  S    7.006538   6.574381   5.816467   5.081129   3.632371
    26  S    5.070114   6.071857   3.437204   2.657895   3.694605
    27  Mo   6.680801   7.727830   5.555455   3.897516   5.034273
    28  S    8.008156   8.526155   7.171160   5.223029   5.476487
    29  S    8.412658   9.508863   6.857565   5.752097   6.763235
                   11         12         13         14         15
    11  S    0.000000
    12  Mo   2.264010   0.000000
    13  Mo   5.200652   6.060951   0.000000
    14  S    4.870837   2.696801   8.402619   0.000000
    15  S    3.515053   2.422703   7.517273   3.119193   0.000000
    16  S    7.555216   8.204044   2.378299  10.322559   9.580496
    17  S    5.987540   6.944462   2.516107   9.263929   7.641511
    18  Mo   7.469280   7.955043   2.911478   9.924166   9.794878
    19  S    9.309807   9.925207   4.786961  11.878878  11.845739
    20  S    7.620482   7.458439   3.967382   8.928551   9.348742
    21  Mo   5.131182   3.221625   8.042392   2.206263   4.838083
    22  S    6.860982   5.138260   9.979210   3.607049   6.480090
    23  S    6.069549   4.229844   7.401369   3.651304   5.972829
    24  Mo   4.082286   5.452915   2.987219   7.979711   6.047324
    25  S    5.107529   6.847783   4.805664   9.379127   6.992735
    26  S    3.414422   3.927986   4.173525   6.113883   4.051239
    27  Mo   2.903555   3.312938   6.289497   5.170603   2.300778
    28  S    3.417159   4.669887   7.317645   6.569740   3.763629
    29  S    5.063357   5.206308   7.715058   6.455374   3.430849
                   16         17         18         19         20
    16  S    0.000000
    17  S    3.194678   0.000000
    18  Mo   2.290543   4.951332   0.000000
    19  S    3.642282   6.600380   2.122648   0.000000
    20  S    3.653345   5.920181   2.199076   3.657157   0.000000
    21  Mo   9.880971   9.463706   9.010485  10.777771   7.902417
    22  S   11.789196  11.529188  10.695750  12.295868   9.517066
    23  S    8.821892   8.950277   7.849697   9.576028   6.339939
    24  Mo   4.813626   2.204867   5.892751   7.658870   6.751931
    25  S    6.350495   3.546956   7.592044   9.107435   8.727307
    26  S    6.020080   3.626177   6.882910   8.906725   7.020159
    27  Mo   8.358876   5.939371   8.952246  10.955280   8.980394
    28  S    9.488853   6.923804  10.063043  11.903770  10.438062
    29  S    9.488375   6.717729  10.453018  12.473276  10.453387
                   21         22         23         24         25
    21  Mo   0.000000
    22  S    2.119667   0.000000
    23  S    2.231744   3.607974   0.000000
    24  Mo   8.324998  10.332558   8.321554   0.000000
    25  S    9.919877  11.841032  10.203200   2.111940   0.000000
    26  S    6.882443   8.946573   6.967702   2.324898   3.780814
    27  Mo   6.444640   8.272836   7.262087   4.151591   4.772722
    28  S    7.718600   9.301814   8.882105   4.831586   4.589434
    29  S    8.102444   9.879206   8.812503   5.278880   5.459946
                   26         27         28         29
    26  S    0.000000
    27  Mo   2.455098   0.000000
    28  S    4.068546   2.173857   0.000000
    29  S    3.571244   2.164552   3.140929   0.000000
 Symmetry turned off by external request.
 Stoichiometry    Mo9S20
 Framework group  C1[X(Mo9S20)]
 Deg. of freedom    81
 Full point group                 C1      NOp   1
 Rotational constants (GHZ):           0.0480612           0.0326059           0.0214295
 General basis read from cards:  (5D, 7F)
 ======================================================================================================
                                       Pseudopotential Parameters
 ======================================================================================================
  Center     Atomic      Valence      Angular      Power
  Number     Number     Electrons     Momentum     of R      Exponent        Coefficient   SO-Coeffient
 ======================================================================================================
    1         42           14
                                      F and up 
                                                     0      537.9667807       -0.04694920    0.00000000
                                                     1      147.8982938      -20.20800840    0.00000000
                                                     2       45.7358898     -106.21163020    0.00000000
                                                     2       13.2911467      -41.81073680    0.00000000
                                                     2        4.7059961       -4.20541030    0.00000000
                                      S - F
                                                     0      110.2991760        2.80637170    0.00000000
                                                     1       23.2014645       44.51620120    0.00000000
                                                     2        5.3530131       82.77852270    0.00000000
                                      P - F
                                                     0       63.2901397        4.94208760    0.00000000
                                                     1       23.3315302       25.86049760    0.00000000
                                                     2       24.6759423      132.47087420    0.00000000
                                                     2        4.6493040       57.31497940    0.00000000
                                      D - F
                                                     0      104.4839977        3.00545910    0.00000000
                                                     1       66.2307245       26.36378510    0.00000000
                                                     2       39.1283176      183.38491990    0.00000000
                                                     2       13.1164437       98.44530680    0.00000000
                                                     2        3.6280263       22.49013770    0.00000000
    2         16
                                   No pseudopotential on this center.
    3         16
                                   No pseudopotential on this center.
    4         16
                                   No pseudopotential on this center.
    5         16
                                   No pseudopotential on this center.
    6         42           14
                                      F and up 
                                                     0      537.9667807       -0.04694920    0.00000000
                                                     1      147.8982938      -20.20800840    0.00000000
                                                     2       45.7358898     -106.21163020    0.00000000
                                                     2       13.2911467      -41.81073680    0.00000000
                                                     2        4.7059961       -4.20541030    0.00000000
                                      S - F
                                                     0      110.2991760        2.80637170    0.00000000
                                                     1       23.2014645       44.51620120    0.00000000
                                                     2        5.3530131       82.77852270    0.00000000
                                      P - F
                                                     0       63.2901397        4.94208760    0.00000000
                                                     1       23.3315302       25.86049760    0.00000000
                                                     2       24.6759423      132.47087420    0.00000000
                                                     2        4.6493040       57.31497940    0.00000000
                                      D - F
                                                     0      104.4839977        3.00545910    0.00000000
                                                     1       66.2307245       26.36378510    0.00000000
                                                     2       39.1283176      183.38491990    0.00000000
                                                     2       13.1164437       98.44530680    0.00000000
                                                     2        3.6280263       22.49013770    0.00000000
    7         16
                                   No pseudopotential on this center.
    8         16
                                   No pseudopotential on this center.
    9         42           14
                                      F and up 
                                                     0      537.9667807       -0.04694920    0.00000000
                                                     1      147.8982938      -20.20800840    0.00000000
                                                     2       45.7358898     -106.21163020    0.00000000
                                                     2       13.2911467      -41.81073680    0.00000000
                                                     2        4.7059961       -4.20541030    0.00000000
                                      S - F
                                                     0      110.2991760        2.80637170    0.00000000
                                                     1       23.2014645       44.51620120    0.00000000
                                                     2        5.3530131       82.77852270    0.00000000
                                      P - F
                                                     0       63.2901397        4.94208760    0.00000000
                                                     1       23.3315302       25.86049760    0.00000000
                                                     2       24.6759423      132.47087420    0.00000000
                                                     2        4.6493040       57.31497940    0.00000000
                                      D - F
                                                     0      104.4839977        3.00545910    0.00000000
                                                     1       66.2307245       26.36378510    0.00000000
                                                     2       39.1283176      183.38491990    0.00000000
                                                     2       13.1164437       98.44530680    0.00000000
                                                     2        3.6280263       22.49013770    0.00000000
   10         16
                                   No pseudopotential on this center.
   11         16
                                   No pseudopotential on this center.
   12         42           14
                                      F and up 
                                                     0      537.9667807       -0.04694920    0.00000000
                                                     1      147.8982938      -20.20800840    0.00000000
                                                     2       45.7358898     -106.21163020    0.00000000
                                                     2       13.2911467      -41.81073680    0.00000000
                                                     2        4.7059961       -4.20541030    0.00000000
                                      S - F
                                                     0      110.2991760        2.80637170    0.00000000
                                                     1       23.2014645       44.51620120    0.00000000
                                                     2        5.3530131       82.77852270    0.00000000
                                      P - F
                                                     0       63.2901397        4.94208760    0.00000000
                                                     1       23.3315302       25.86049760    0.00000000
                                                     2       24.6759423      132.47087420    0.00000000
                                                     2        4.6493040       57.31497940    0.00000000
                                      D - F
                                                     0      104.4839977        3.00545910    0.00000000
                                                     1       66.2307245       26.36378510    0.00000000
                                                     2       39.1283176      183.38491990    0.00000000
                                                     2       13.1164437       98.44530680    0.00000000
                                                     2        3.6280263       22.49013770    0.00000000
   13         42           14
                                      F and up 
                                                     0      537.9667807       -0.04694920    0.00000000
                                                     1      147.8982938      -20.20800840    0.00000000
                                                     2       45.7358898     -106.21163020    0.00000000
                                                     2       13.2911467      -41.81073680    0.00000000
                                                     2        4.7059961       -4.20541030    0.00000000
                                      S - F
                                                     0      110.2991760        2.80637170    0.00000000
                                                     1       23.2014645       44.51620120    0.00000000
                                                     2        5.3530131       82.77852270    0.00000000
                                      P - F
                                                     0       63.2901397        4.94208760    0.00000000
                                                     1       23.3315302       25.86049760    0.00000000
                                                     2       24.6759423      132.47087420    0.00000000
                                                     2        4.6493040       57.31497940    0.00000000
                                      D - F
                                                     0      104.4839977        3.00545910    0.00000000
                                                     1       66.2307245       26.36378510    0.00000000
                                                     2       39.1283176      183.38491990    0.00000000
                                                     2       13.1164437       98.44530680    0.00000000
                                                     2        3.6280263       22.49013770    0.00000000
   14         16
                                   No pseudopotential on this center.
   15         16
                                   No pseudopotential on this center.
   16         16
                                   No pseudopotential on this center.
   17         16
                                   No pseudopotential on this center.
   18         42           14
                                      F and up 
                                                     0      537.9667807       -0.04694920    0.00000000
                                                     1      147.8982938      -20.20800840    0.00000000
                                                     2       45.7358898     -106.21163020    0.00000000
                                                     2       13.2911467      -41.81073680    0.00000000
                                                     2        4.7059961       -4.20541030    0.00000000
                                      S - F
                                                     0      110.2991760        2.80637170    0.00000000
                                                     1       23.2014645       44.51620120    0.00000000
                                                     2        5.3530131       82.77852270    0.00000000
                                      P - F
                                                     0       63.2901397        4.94208760    0.00000000
                                                     1       23.3315302       25.86049760    0.00000000
                                                     2       24.6759423      132.47087420    0.00000000
                                                     2        4.6493040       57.31497940    0.00000000
                                      D - F
                                                     0      104.4839977        3.00545910    0.00000000
                                                     1       66.2307245       26.36378510    0.00000000
                                                     2       39.1283176      183.38491990    0.00000000
                                                     2       13.1164437       98.44530680    0.00000000
                                                     2        3.6280263       22.49013770    0.00000000
   19         16
                                   No pseudopotential on this center.
   20         16
                                   No pseudopotential on this center.
   21         42           14
                                      F and up 
                                                     0      537.9667807       -0.04694920    0.00000000
                                                     1      147.8982938      -20.20800840    0.00000000
                                                     2       45.7358898     -106.21163020    0.00000000
                                                     2       13.2911467      -41.81073680    0.00000000
                                                     2        4.7059961       -4.20541030    0.00000000
                                      S - F
                                                     0      110.2991760        2.80637170    0.00000000
                                                     1       23.2014645       44.51620120    0.00000000
                                                     2        5.3530131       82.77852270    0.00000000
                                      P - F
                                                     0       63.2901397        4.94208760    0.00000000
                                                     1       23.3315302       25.86049760    0.00000000
                                                     2       24.6759423      132.47087420    0.00000000
                                                     2        4.6493040       57.31497940    0.00000000
                                      D - F
                                                     0      104.4839977        3.00545910    0.00000000
                                                     1       66.2307245       26.36378510    0.00000000
                                                     2       39.1283176      183.38491990    0.00000000
                                                     2       13.1164437       98.44530680    0.00000000
                                                     2        3.6280263       22.49013770    0.00000000
   22         16
                                   No pseudopotential on this center.
   23         16
                                   No pseudopotential on this center.
   24         42           14
                                      F and up 
                                                     0      537.9667807       -0.04694920    0.00000000
                                                     1      147.8982938      -20.20800840    0.00000000
                                                     2       45.7358898     -106.21163020    0.00000000
                                                     2       13.2911467      -41.81073680    0.00000000
                                                     2        4.7059961       -4.20541030    0.00000000
                                      S - F
                                                     0      110.2991760        2.80637170    0.00000000
                                                     1       23.2014645       44.51620120    0.00000000
                                                     2        5.3530131       82.77852270    0.00000000
                                      P - F
                                                     0       63.2901397        4.94208760    0.00000000
                                                     1       23.3315302       25.86049760    0.00000000
                                                     2       24.6759423      132.47087420    0.00000000
                                                     2        4.6493040       57.31497940    0.00000000
                                      D - F
                                                     0      104.4839977        3.00545910    0.00000000
                                                     1       66.2307245       26.36378510    0.00000000
                                                     2       39.1283176      183.38491990    0.00000000
                                                     2       13.1164437       98.44530680    0.00000000
                                                     2        3.6280263       22.49013770    0.00000000
   25         16
                                   No pseudopotential on this center.
   26         16
                                   No pseudopotential on this center.
   27         42           14
                                      F and up 
                                                     0      537.9667807       -0.04694920    0.00000000
                                                     1      147.8982938      -20.20800840    0.00000000
                                                     2       45.7358898     -106.21163020    0.00000000
                                                     2       13.2911467      -41.81073680    0.00000000
                                                     2        4.7059961       -4.20541030    0.00000000
                                      S - F
                                                     0      110.2991760        2.80637170    0.00000000
                                                     1       23.2014645       44.51620120    0.00000000
                                                     2        5.3530131       82.77852270    0.00000000
                                      P - F
                                                     0       63.2901397        4.94208760    0.00000000
                                                     1       23.3315302       25.86049760    0.00000000
                                                     2       24.6759423      132.47087420    0.00000000
                                                     2        4.6493040       57.31497940    0.00000000
                                      D - F
                                                     0      104.4839977        3.00545910    0.00000000
                                                     1       66.2307245       26.36378510    0.00000000
                                                     2       39.1283176      183.38491990    0.00000000
                                                     2       13.1164437       98.44530680    0.00000000
                                                     2        3.6280263       22.49013770    0.00000000
   28         16
                                   No pseudopotential on this center.
   29         16
                                   No pseudopotential on this center.
 ======================================================================================================
   558 basis functions,  1481 primitive gaussians,   596 cartesian basis functions
   223 alpha electrons      223 beta electrons
       nuclear repulsion energy     10565.1053194139 Hartrees.
 NAtoms=   29 NActive=   29 NUniq=   29 SFac= 1.00D+00 NAtFMM=   60 NAOKFM=F Big=F
 Integral buffers will be    131072 words long.
 Raffenetti 2 integral format.
 Two-electron integral symmetry is turned off.
 One-electron integrals computed using PRISM.
   1 Symmetry operations used in ECPInt.
 ECPInt:  NShTT=   14878 NPrTT=  122548 LenC2=   12795 LenP2D=   61240.
 LDataN:  DoStor=T MaxTD1= 5 Len=  102
 NBasis=   558 RedAO= T EigKep=  2.10D-04  NBF=   558
 NBsUse=   558 1.00D-06 EigRej= -1.00D+00 NBFU=   558
 Defaulting to unpruned grid for atomic number  42.
 Defaulting to unpruned grid for atomic number  42.
 Defaulting to unpruned grid for atomic number  42.
 Defaulting to unpruned grid for atomic number  42.
 Defaulting to unpruned grid for atomic number  42.
 Defaulting to unpruned grid for atomic number  42.
 Defaulting to unpruned grid for atomic number  42.
 Defaulting to unpruned grid for atomic number  42.
 Defaulting to unpruned grid for atomic number  42.
 ExpMin= 2.47D-02 ExpMax= 2.19D+04 ExpMxC= 3.30D+03 IAcc=3 IRadAn=         5 AccDes= 0.00D+00
 Harris functional with IExCor=  402 and IRadAn=       5 diagonalized for initial guess.
 HarFok:  IExCor=  402 AccDes= 0.00D+00 IRadAn=         5 IDoV= 1 UseB2=F ITyADJ=14
 ICtDFT=  3500011 ScaDFX=  1.000000  1.000000  1.000000  1.000000
 Defaulting to unpruned grid for atomic number  42.
 FoFCou: FMM=F IPFlag=           0 FMFlag=      100000 FMFlg1=           0
         NFxFlg=           0 DoJE=T BraDBF=F KetDBF=T FulRan=T
         wScrn=  0.000000 ICntrl=       500 IOpCl=  0 I1Cent=   200000004 NGrid=           0
         NMat0=    1 NMatS0=      1 NMatT0=    0 NMatD0=    1 NMtDS0=    0 NMtDT0=    0
 Symmetry not used in FoFCou.
 Requested convergence on RMS density matrix=1.00D-08 within 128 cycles.
 Requested convergence on MAX density matrix=1.00D-06.
 Requested convergence on             energy=1.00D-06.
 No special actions if energy rises.
 Defaulting to unpruned grid for atomic number  42.
 Defaulting to unpruned grid for atomic number  42.
 Defaulting to unpruned grid for atomic number  42.
 Defaulting to unpruned grid for atomic number  42.
 Defaulting to unpruned grid for atomic number  42.
 Defaulting to unpruned grid for atomic number  42.
 Defaulting to unpruned grid for atomic number  42.
 Defaulting to unpruned grid for atomic number  42.
 Defaulting to unpruned grid for atomic number  42.
 Defaulting to unpruned grid for atomic number  42.
 Defaulting to unpruned grid for atomic number  42.
 Defaulting to unpruned grid for atomic number  42.
 Defaulting to unpruned grid for atomic number  42.
 Defaulting to unpruned grid for atomic number  42.
 Defaulting to unpruned grid for atomic number  42.
 Defaulting to unpruned grid for atomic number  42.
 Defaulting to unpruned grid for atomic number  42.
 Defaulting to unpruned grid for atomic number  42.
 Defaulting to unpruned grid for atomic number  42.
 Defaulting to unpruned grid for atomic number  42.
 Defaulting to unpruned grid for atomic number  42.
 Defaulting to unpruned grid for atomic number  42.
 Defaulting to unpruned grid for atomic number  42.
 Defaulting to unpruned grid for atomic number  42.
 Defaulting to unpruned grid for atomic number  42.
 Defaulting to unpruned grid for atomic number  42.
 Defaulting to unpruned grid for atomic number  42.
 Defaulting to unpruned grid for atomic number  42.
 Defaulting to unpruned grid for atomic number  42.
 Defaulting to unpruned grid for atomic number  42.
 Defaulting to unpruned grid for atomic number  42.
 Defaulting to unpruned grid for atomic number  42.
 Defaulting to unpruned grid for atomic number  42.
 Defaulting to unpruned grid for atomic number  42.
 Defaulting to unpruned grid for atomic number  42.
 Defaulting to unpruned grid for atomic number  42.
 Defaulting to unpruned grid for atomic number  42.
 Defaulting to unpruned grid for atomic number  42.
 Defaulting to unpruned grid for atomic number  42.
 Defaulting to unpruned grid for atomic number  42.
 Defaulting to unpruned grid for atomic number  42.
 Defaulting to unpruned grid for atomic number  42.
 Defaulting to unpruned grid for atomic number  42.
 Defaulting to unpruned grid for atomic number  42.
 Defaulting to unpruned grid for atomic number  42.
 Defaulting to unpruned grid for atomic number  42.
 EnCoef did   100 forward-backward iterations
 EnCoef did   100 forward-backward iterations
 EnCoef did   100 forward-backward iterations
 EnCoef did   100 forward-backward iterations
 EnCoef did     6 forward-backward iterations
 EnCoef did     2 forward-backward iterations
 EnCoef did     4 forward-backward iterations
 EnCoef did     5 forward-backward iterations
 EnCoef did     4 forward-backward iterations
 Restarting incremental Fock formation.
 SCF Done:  E(RB3LYP) =  -8572.70958314     A.U. after   37 cycles
            NFock= 37  Conv=0.69D-08     -V/T= 2.0521

 **********************************************************************

            Population analysis using the SCF Density.

 **********************************************************************

 Alpha  occ. eigenvalues --  -88.93443 -88.93348 -88.93248 -88.92695 -88.92187
 Alpha  occ. eigenvalues --  -88.92171 -88.91882 -88.91808 -88.91473 -88.90557
 Alpha  occ. eigenvalues --  -88.90154 -88.90097 -88.89779 -88.89759 -88.89659
 Alpha  occ. eigenvalues --  -88.89637 -88.89575 -88.89401 -88.88617 -88.88287
 Alpha  occ. eigenvalues --   -8.00783  -8.00723  -8.00711  -8.00239  -7.99872
 Alpha  occ. eigenvalues --   -7.99722  -7.99314  -7.99311  -7.99170  -7.98422
 Alpha  occ. eigenvalues --   -7.97873  -7.97820  -7.97520  -7.97486  -7.97450
 Alpha  occ. eigenvalues --   -7.97337  -7.97200  -7.97122  -7.96515  -7.96166
 Alpha  occ. eigenvalues --   -5.96792  -5.96765  -5.96760  -5.96739  -5.96716
 Alpha  occ. eigenvalues --   -5.96703  -5.96699  -5.96648  -5.96574  -5.96247
 Alpha  occ. eigenvalues --   -5.96232  -5.96122  -5.95947  -5.95840  -5.95750
 Alpha  occ. eigenvalues --   -5.95706  -5.95704  -5.95599  -5.95366  -5.95365
 Alpha  occ. eigenvalues --   -5.95284  -5.95276  -5.95233  -5.95203  -5.95184
 Alpha  occ. eigenvalues --   -5.95129  -5.95000  -5.94445  -5.94357  -5.94278
 Alpha  occ. eigenvalues --   -5.93960  -5.93939  -5.93799  -5.93752  -5.93727
[...]
 1819,0.00001991,0.00002314,-0.00002621,-0.00042143,0.00026796,-0.00022
 239,-0.09767953,0.04863243,0.05306390,-0.00470103,0.00480014,-0.004989
 58,0.11835167,-0.00792926,-0.01122210,-0.01017065,0.00106801,-0.000319
 56,0.00258078,0.00340298,-0.00163210,0.00288426,0.00352385,0.00165733,
 0.00374855,0.00185367,-0.00087920,-0.00409986,-0.00073076,0.00276240,-
 0.00026558,0.00017659,0.00000868,0.00006865,-0.00031803,-0.00000257,-0
 .00035225,-0.00097445,-0.00015071,0.00071768,0.00086163,-0.00031798,0.
 00017884,0.00024679,0.00072354,-0.00000973,0.00073540,-0.00000532,0.00
 057015,-0.00052637,0.00054713,-0.00016439,-0.00014572,0.00996019,0.002
 17018,-0.00011152,-0.00007405,0.00004235,0.00022293,0.00003428,0.00002
 877,0.00002159,0.00008218,0.00009438,0.00019752,-0.00028297,-0.0000103
 6,-0.00000768,-0.00001313,0.00003186,0.00014915,0.00016071,-0.00000022
 ,0.04161086,-0.04136454,-0.02519813,0.00468696,-0.00266591,-0.00218606
 ,-0.04784856,0.04299722,0.00041463,0.00077965,-0.05062974,0.00062561,0
 .00243724,-0.00192849,-0.00540166,0.00259682,-0.00097036,-0.00462903,-
 0.00260543,-0.00255550,0.00599605,-0.00111356,-0.00405799,0.00070493,-
 0.00153437,-0.00259113,-0.00040547,-0.00002297,-0.00000712,0.00043473,
 0.00012078,0.00016851,-0.00239875,0.00239340,-0.00142969,-0.00040152,-
 0.00019969,0.00018787,0.00004029,-0.00004367,-0.00004975,0.00128379,0.
 00045554,-0.00126747,-0.00002178,-0.00045385,0.00047074,0.00208258,0.0
 0431611,-0.00002266,-0.00017141,-0.00023524,0.00025192,-0.00012424,0.0
 0013174,0.00003257,-0.00013819,-0.00007235,-0.00001848,-0.00014352,-0.
 00003957,-0.00018817,-0.00005292,-0.00000151,-0.00001611,-0.00030274,0
 .00011324,-0.00010565,0.06067127,-0.03468751,-0.06667687,-0.00260216,-
 0.00173923,0.00796459,-0.05597579,0.02932095,0.12289387,-0.00140993,-0
 .00084912,-0.00284260,0.00061253,-0.00197805,-0.00320221,-0.00075013,0
 .00076958,-0.00029543,-0.00086802,-0.00261841,0.00055820,-0.00006604,-
 0.00012170,0.00053564,0.00024160,-0.00212403,-0.00371847,0.00155944,0.
 00204140,0.00348053,0.00022717,0.00111488,0.00321510,0.00342602,0.0141
 9571,0.00071897,-0.01899846,-0.03067889,-0.00110766,0.00078827,0.00016
 002,0.00171422,0.00067393,0.00105606,-0.00176128,-0.03361175,-0.016385
 92,0.01615856,-0.00026692,-0.00056887,0.00047944,-0.00037371,-0.002670
 13,0.00272203,-0.00074680,-0.00023799,-0.00015350,-0.11993028,0.078864
 24,0.02579642,-0.00119097,-0.00001158,-0.00047438,0.00115171,0.0002281
 0,0.00106721,-0.00101474,0.00031267,-0.00119281,0.00144136,0.00066255,
 0.00054167,-0.00000066,-0.00002718,0.00005342,0.00043798,-0.00065063,0
 .00008098,0.27541625,-0.00024536,0.00002903,0.00041965,-0.00233797,-0.
 00206467,-0.00073685,0.00047525,0.00001655,0.00091845,-0.00169068,-0.0
 0216136,0.00137882,0.00022421,-0.00007595,0.00000287,-0.00081137,-0.00
 501990,-0.00123463,-0.00230230,-0.00375012,0.00213470,-0.00048303,0.00
 142016,-0.00198362,0.01292861,0.00682490,0.00941513,-0.03123391,-0.130
 53955,0.00810295,0.00162923,-0.00082289,0.00208415,0.00219022,-0.00132
 119,-0.00140999,-0.01276478,0.02139813,0.00139646,-0.00038312,0.000213
 96,-0.00018097,-0.00024809,-0.00113546,0.00143071,0.00237072,-0.002500
 59,0.00209969,0.07986508,-0.07710122,-0.01025820,0.00041576,-0.0026355
 2,-0.00230896,0.00062116,0.00037960,0.00074942,-0.00027218,0.00022051,
 -0.00035646,-0.00015406,-0.00059369,-0.00047784,-0.00004045,0.00024437
 ,-0.00020055,-0.00066573,0.00028041,-0.00003632,-0.01626183,0.24607522
 ,0.00047908,-0.00154891,-0.00253266,-0.00145967,0.00130652,-0.00119434
 ,0.00004414,0.00029699,0.00022548,-0.00112057,-0.00127253,-0.00038406,
 0.00001313,-0.00005708,0.00008077,0.00054416,-0.00032103,-0.00167815,0
 .00137353,-0.00012049,0.00095689,0.00218947,0.00120215,-0.00316127,0.0
 0648655,0.01179308,-0.00332629,0.00293301,0.00887455,-0.01555765,0.000
 28809,-0.00022272,0.00015648,-0.00095758,-0.00142023,0.00010703,0.0004
 4671,0.00740686,-0.00856767,0.00005115,0.00021256,-0.00009236,-0.00058
 947,-0.00018758,0.00013739,0.00227095,0.00048635,-0.00030744,0.0295888
 0,-0.01854975,-0.02261867,0.00108938,0.00003788,0.00084726,-0.00102606
 ,-0.00052005,-0.00075708,-0.00011974,-0.00015426,-0.00018670,-0.000750
 73,0.00065920,0.00007524,0.00023277,-0.00049091,0.00029130,0.00073077,
 -0.00014160,0.00049752,-0.06367408,-0.03707328,0.37175196,0.00005903,-
 0.00007264,-0.00071186,0.00027994,0.00061915,-0.00007243,0.00006132,-0
 .00010668,-0.00000480,-0.00026050,0.00022517,-0.00016013,0.00002539,-0
 .00003534,-0.00002574,-0.00005147,0.00006907,0.00016225,-0.00061730,-0
 .00022926,-0.00042956,0.00020780,0.00004085,-0.00047205,0.00001168,-0.
 00318907,0.00302210,-0.00084454,-0.00168560,0.00144727,-0.00011596,-0.
 00002962,-0.00016912,-0.00033492,-0.00002271,0.00057142,0.00492265,0.0
 0161824,-0.00079663,0.00005072,0.00002239,-0.00003758,-0.00005028,0.00
 022485,-0.00022628,-0.00035662,-0.00007791,0.00025867,-0.00425177,-0.0
 0102123,0.00672657,-0.00004547,-0.00020975,0.00031109,-0.00014877,-0.0
 0004084,-0.00000277,-0.00008646,0.00008131,-0.00007798,-0.00021157,0.0
 0016302,-0.00001924,0.00006285,-0.00013517,0.00007941,0.00016036,0.000
 03223,0.00006970,-0.04306851,-0.01041192,0.07114922,0.03893578,0.00010
 152,0.00008904,0.00044491,0.00025561,-0.00011042,0.00006499,0.00002135
 ,0.00000655,0.00006402,0.00021264,0.00006438,0.00002936,0.00002089,0.0
 0001491,0.00002819,-0.00036363,0.00024648,-0.00016842,0.00011598,0.000
 30282,-0.00017024,0.00000157,-0.00014376,-0.00025380,-0.00115801,0.000
 20742,-0.00156278,-0.00017547,0.00133679,0.00603700,-0.00000304,0.0000
 0591,0.00000725,-0.00015949,-0.00000133,-0.00013611,0.00035505,-0.0001
 9174,0.00059298,-0.00001078,-0.00006314,0.00008258,0.00003868,0.000050
 44,0.00001394,0.00008610,0.00018187,0.00007984,-0.00388918,0.00519575,
 -0.00590659,-0.00004025,0.00008384,-0.00003633,-0.00008659,-0.00004152
 ,-0.00004080,0.00009773,0.00000401,0.00005625,0.00010587,0.00007801,-0
 .00001913,0.00001545,-0.00005045,0.00002969,-0.00006025,-0.00003280,-0
 .00005966,-0.01230678,-0.02914687,0.04550629,0.01238025,0.02097701,-0.
 00052291,0.00009138,0.00036068,0.00028005,-0.00054605,0.00011486,-0.00
 015724,0.00006276,-0.00034655,0.00041359,0.00008348,0.00021636,-0.0000
 2692,-0.00002651,0.00006335,-0.00017601,0.00014590,0.00163329,-0.00083
 490,0.00058030,0.00014774,-0.00018005,-0.00034025,0.00095967,-0.002550
 25,0.00207447,-0.00337625,0.00111125,0.00535881,0.00081885,0.00023575,
 0.00006453,0.00046494,0.00072413,0.00069440,-0.00059841,0.00830745,0.0
 0181990,-0.00416890,-0.00019847,-0.00020036,0.00014652,0.00006265,-0.0
 0090188,0.00088024,-0.00057011,-0.00062088,0.00071138,0.00813444,-0.00
 556076,-0.00046902,-0.00174518,-0.00111658,0.00013277,0.00081999,0.000
 33343,0.00042407,-0.00014377,0.00010711,-0.00021824,0.00076484,-0.0003
 3578,0.00008645,-0.00016637,0.00039564,-0.00021999,-0.00015725,-0.0000
 0104,-0.00008498,0.07028604,0.04296015,-0.24893860,-0.07978431,-0.0449
 4466,0.25571100,0.00047608,-0.00123046,-0.00100964,0.00130249,0.002308
 95,-0.00041298,0.00077042,-0.00016221,0.00077096,0.00088182,-0.0018038
 0,0.00176129,-0.00020185,0.00008454,-0.00076574,0.00211945,-0.00094482
 ,-0.00210601,0.00024665,-0.00026028,0.00006165,-0.00454151,-0.00305473
 ,0.00246559,-0.01992187,-0.00884115,0.00612935,-0.00047171,-0.00315115
 ,0.00028270,-0.00033019,0.00579818,-0.00371975,-0.00400281,-0.00014970
 ,0.00388363,-0.00267262,0.00100752,0.00178540,0.00105291,0.00109713,-0
 .00100661,0.00125073,0.00568650,-0.00741650,0.00080933,0.00003873,-0.0
 0031793,-0.00773179,0.00106329,-0.00195290,0.00070103,0.00075812,-0.00
 060357,-0.00029855,-0.00012318,-0.00019007,0.00035330,-0.00028128,0.00
 031448,-0.00216072,-0.00005506,0.00031665,0.00004863,-0.00006456,0.000
 08850,0.00086269,0.00004810,0.00045392,-0.05513532,-0.01880470,-0.0460
 6113,0.00661031,0.00423883,-0.00389897,0.14338124,-0.00281602,-0.00176
 365,-0.00103156,-0.00057907,0.00039871,0.00111162,-0.00022030,0.000382
 54,0.00032115,-0.00041454,-0.00353571,0.00112553,-0.00045634,0.0001143
 7,0.00086608,0.00091783,0.00040266,0.00084267,-0.00013607,0.00017627,-
 0.00022222,-0.00070643,0.00028201,0.00152415,-0.00863555,-0.01729473,0
 .00098231,-0.00328410,-0.00041321,-0.00409788,0.00344551,-0.00821386,0
 .00235194,0.00118574,-0.00294309,-0.00208493,-0.00130595,0.00020868,0.
 00072763,0.00025500,0.00040122,-0.00043517,0.00202309,0.00181416,-0.00
 157721,0.00027991,0.00024707,0.00024176,-0.00119681,0.00234196,0.00287
 032,0.00007906,-0.00033962,-0.00019608,-0.00000870,-0.00003833,0.00001
 080,0.00009450,0.00000232,0.00014858,-0.00003822,-0.00005005,0.0003316
 3,-0.00006664,-0.00002870,0.00002118,0.00049689,-0.00011980,0.00006778
 ,-0.01411824,-0.01770798,-0.01736357,0.00093768,0.00093376,0.00003399,
 0.01132681,0.05597847,-0.00012652,0.00083648,0.00027151,0.00230724,0.0
 0555463,-0.00338501,0.00052338,-0.00019143,0.00015225,0.00213773,0.005
 99432,-0.00194244,-0.00001436,0.00019463,-0.00061775,0.00064863,0.0006
 0990,-0.00021833,0.00025729,-0.00006409,0.00020682,0.00122091,0.000916
 30,-0.00111320,-0.00127499,-0.01145455,-0.00077055,-0.00068190,-0.0034
 6507,0.00087927,-0.00138012,-0.00089209,-0.00166936,-0.00078879,0.0025
 3629,0.00200108,-0.00102429,0.00175946,-0.00072689,0.00032401,0.000121
 16,-0.00008171,-0.00142513,-0.00102479,0.00132637,0.00069164,0.0000166
 5,-0.00017297,-0.00615080,0.00427881,0.00337744,0.00036975,0.00048947,
 -0.00044611,-0.00020686,-0.00008510,-0.00013645,0.00032576,-0.00006452
 ,0.00029055,-0.00072082,0.00020203,0.00021163,0.00004486,-0.00015755,0
 .00007143,0.00062414,0.00017033,0.00017124,-0.04339245,-0.01584007,-0.
 06512891,-0.00088236,-0.00058970,-0.00370341,0.03804955,0.01205683,0.0
 8000341,-0.00048142,0.00092799,0.00235827,-0.00060588,-0.00156077,0.00
 240173,-0.00029098,-0.00008601,-0.00075135,0.00047204,0.00057636,-0.00
 064195,-0.00011938,-0.00098077,-0.00007331,-0.00080456,0.00087821,0.00
 221911,-0.00007842,0.00015915,-0.00032627,0.00016091,0.00051390,0.0006
 4181,-0.00355532,-0.00101458,-0.00045541,-0.00008364,-0.00041869,-0.00
 000871,0.00054293,-0.00227808,-0.00452143,0.01123014,0.00874194,0.0037
 9830,0.00194393,-0.00044695,-0.00131448,-0.00014460,0.00009499,0.00038
 674,-0.04873269,0.01299203,-0.03163103,-0.00051273,0.00001184,0.000194
 75,0.00145947,-0.00120655,-0.00015280,-0.00043908,-0.00044576,0.000449
 07,0.00028247,0.00009410,0.00012537,-0.00009122,0.00002173,-0.00025365
 ,0.00146326,-0.00051103,-0.00213397,0.00011080,-0.00001711,-0.00005843
 ,-0.00093481,0.00043963,-0.00009006,-0.00857316,-0.00125639,-0.0046109
 1,-0.00094027,-0.00004013,0.00068388,-0.05675971,0.01728942,0.00623659
 ,0.19464378,0.00050463,0.00116977,0.00111835,0.00015305,0.00149395,-0.
 00011941,0.00117878,-0.00038623,0.00006844,0.00032069,-0.00079397,-0.0
 0020463,0.00030510,-0.00053861,-0.00257932,0.00171641,-0.00071947,-0.0
 0148787,0.00027063,-0.00017311,0.00014774,0.00004674,-0.00011114,-0.00
 032590,-0.00274889,0.00129471,0.00482064,0.00032442,-0.00026445,-0.000
 15510,-0.00197325,0.00318680,-0.01168406,-0.00011236,-0.00575002,0.019
 54408,-0.00181338,0.00087869,0.00110131,-0.00011309,0.00043493,-0.0005
 5691,0.02517573,-0.03784303,0.03616326,0.00060378,-0.00000928,-0.00021
 717,-0.00032252,0.00048811,0.00053787,-0.00009899,0.00002293,-0.000546
 62,0.00033357,0.00015454,0.00004603,0.00021216,-0.00004809,0.00019312,
 -0.00143091,0.00033431,0.00016468,0.00005334,0.00047329,-0.00022408,0.
 00015908,-0.00004744,0.00003322,0.00241184,0.00024431,0.00246312,0.000
 84562,-0.00005881,-0.00011628,0.00625807,-0.01334014,-0.00551462,0.027
 57827,0.32188211,0.00002069,0.00269122,0.00411938,0.00029897,-0.001120
 10,0.00025638,-0.00071120,-0.00034246,-0.00047398,0.00008740,0.0003606
 0,-0.00104726,0.00447877,-0.00144761,-0.00200118,-0.00146854,0.0015068
 4,0.00236824,-0.00003206,0.00029896,-0.00035154,0.00071456,0.00049578,
 0.00067187,0.00279951,-0.00171265,-0.00142970,-0.00019572,-0.00016955,
 -0.00014957,-0.00133977,0.00118586,-0.00778679,0.00749604,0.01813370,-
 0.00749100,0.00151702,-0.00221459,-0.00088492,-0.00013695,-0.00063885,
 0.00035849,-0.04030092,0.01989307,-0.05943567,-0.00040958,0.00024715,0
 .00024243,0.00043017,0.00000140,0.00005057,0.00032009,-0.00047403,0.00
 028895,-0.00015410,-0.00007091,0.00000223,-0.00004692,0.00009892,-0.00
 007516,0.00044759,0.00141604,-0.00027894,0.00034246,-0.00023452,0.0002
 3645,-0.00108398,0.00009636,-0.00013112,-0.00604287,-0.00062120,0.0029
 8691,0.00139265,0.00081437,-0.00245832,0.00615243,0.00175420,-0.013466
 04,-0.04271984,0.03678057,0.30768430,-0.00020959,0.00010161,-0.0001710
 8,-0.00001357,0.00005381,0.00008814,-0.00007383,-0.00001341,-0.0000143
 8,0.00001961,-0.00007071,0.00026019,0.00011282,-0.00013739,-0.00014161
 ,0.00012276,-0.00016126,-0.00027408,-0.00002546,-0.00000549,0.00011509
 ,-0.00004645,-0.00000874,0.00000893,-0.00017998,0.00038010,-0.00050801
 ,-0.00006427,-0.00007538,-0.00001862,-0.00266317,-0.00383778,0.0028786
 3,0.00062932,0.00107693,-0.00193335,-0.00032356,0.00004733,0.00006254,
 -0.00030736,-0.00028612,0.00018075,0.00448392,-0.00394826,-0.00026700,
 0.00006148,0.00001546,-0.00003999,0.00025136,-0.00000232,-0.00006554,0
 .00009784,-0.00003630,0.00002614,-0.00006846,-0.00002223,-0.00000736,-
 0.00005596,0.00003668,-0.00000938,0.00031129,0.00034591,-0.00004578,0.
 00003928,-0.00011039,0.00006825,-0.00002385,-0.00001643,-0.00000242,-0
 .00011717,-0.00002182,0.00010648,-0.00030106,0.00020052,-0.00048412,0.
 00096651,0.00111075,0.00391963,-0.04000097,0.02792210,0.06640082,0.032
 87982,-0.00046619,-0.00059488,-0.00123239,0.00015386,0.00023446,-0.000
 06824,-0.00007327,0.00010378,0.00008228,0.00018594,-0.00008863,0.00035
 314,-0.00078228,0.00013432,0.00021940,0.00048752,-0.00008491,-0.000386
 94,-0.00001052,-0.00006018,0.00005272,-0.00028321,-0.00002439,-0.00017
 939,-0.00128298,0.00039362,-0.00008193,-0.00003541,-0.00002567,0.00001
 876,-0.00071217,-0.00330197,0.00280672,-0.00084551,0.00018686,-0.00059
 885,-0.00001771,0.00056222,0.00000004,0.00017179,0.00030202,-0.0001899
 0,-0.00482601,0.00876178,-0.00281372,0.00000224,-0.00008343,-0.0000595
 4,0.00009740,-0.00010512,0.00001093,-0.00010426,0.00004032,0.00001005,
 0.00004862,0.00003176,0.00001200,-0.00000939,-0.00000238,0.00005612,0.
 00011549,-0.00023067,-0.00019160,-0.00010892,-0.00000172,-0.00003191,0
 .00028910,-0.00008244,0.00001769,0.00028894,0.00003591,-0.00136236,-0.
 00002638,-0.00014686,0.00063420,0.00293508,-0.00055869,0.00246954,0.02
 720618,-0.05309985,-0.06930498,-0.02488375,0.05739358,-0.00030852,0.00
 003003,-0.00036009,0.00019025,0.00060903,-0.00006915,0.00028599,-0.000
 01049,0.00003994,0.00005158,0.00021670,-0.00005468,-0.00056431,0.00035
 464,-0.00022005,0.00041157,-0.00003782,-0.00027122,0.00010456,-0.00007
 437,0.00006265,-0.00032140,-0.00000788,-0.00018706,0.00013211,-0.00041
 246,0.00045609,0.00015264,0.00005818,-0.00003604,0.00273288,0.00293830
 ,-0.00191970,-0.00150686,-0.00417401,-0.00016249,-0.00031376,0.0003493
 0,0.00030742,0.00049083,0.00049146,-0.00036794,-0.00363536,0.00772504,
 -0.01109876,-0.00000314,-0.00010472,-0.00006920,0.00002844,-0.00001867
 ,0.00009804,-0.00021393,0.00013118,-0.00013018,0.00014951,0.00007068,0
 .00001696,0.00003015,-0.00003620,0.00006098,-0.00054090,-0.00045488,0.
 00028535,-0.00009775,0.00019124,-0.00015420,0.00022771,-0.00010364,0.0
 0007114,0.00091632,-0.00051148,-0.00369723,-0.00131419,0.00002791,0.00
 173525,0.00595590,-0.00028732,0.00420834,0.06751176,-0.07532968,-0.198
 03585,-0.06431689,0.08279039,0.20825919,0.00043771,-0.00062477,-0.0007
 9442,0.00010919,0.00008337,-0.00042628,-0.00018705,0.00010211,0.000162
 36,-0.00011384,-0.00008881,0.00002533,-0.00044286,-0.00001709,0.000150
 02,0.00004326,0.00006741,0.00000026,0.00001095,-0.00001816,-0.00005503
 ,0.00001626,0.00001603,0.00001298,-0.00066525,-0.00005264,-0.00022222,
 -0.00001542,0.00006367,-0.00007229,-0.00011407,0.00042994,-0.00029082,
 0.00061363,0.00149206,0.00072457,0.00008896,-0.00015769,-0.00000467,-0
 .00017112,-0.00036395,0.00041083,0.00348640,0.00272567,0.00159863,-0.0
 0005602,0.00001654,-0.00000020,-0.00001960,0.00008159,0.00010301,0.000
 15588,0.00006097,0.00008600,-0.00012789,-0.00005017,-0.00003504,-0.000
 01742,0.00000887,0.00001102,0.00030163,0.00031067,0.00004377,-0.000001
 78,-0.00013056,0.00007534,0.00011231,-0.00001847,0.00000318,0.00014632
 ,-0.00033055,0.00035254,0.00029766,0.00004554,-0.00022724,-0.00760492,
 -0.00545919,0.00038830,-0.04916090,-0.08776064,0.00174327,0.00449870,0
 .00248579,-0.00623521,0.04837929,0.00051088,-0.00031753,0.00001615,0.0
 0000758,-0.00040757,-0.00010384,-0.00063547,0.00011685,0.00008371,0.00
 014015,0.00031576,-0.00013077,0.00018055,0.00033868,0.00014807,-0.0005
 0049,0.00029574,0.00071981,-0.00004355,0.00005914,-0.00004395,0.000003
 46,0.00003704,0.00005946,0.00012399,-0.00005805,-0.00089835,0.00002532
 ,0.00017029,-0.00014173,-0.00058378,-0.00275390,0.00306412,-0.00051237
 ,-0.00176000,-0.00265409,0.00076058,-0.00040099,-0.00014733,-0.0000837
 4,-0.00026471,0.00016130,0.00299464,-0.00847519,0.00906915,-0.00025469
 ,0.00007027,0.00006222,0.00001887,0.00007195,-0.00017268,0.00030647,0.
 00014321,0.00026778,-0.00035039,-0.00016163,-0.00008043,-0.00013155,0.
 00005121,-0.00011719,-0.00003774,0.00054542,-0.00017139,0.00020315,-0.
 00044812,0.00021376,-0.00012276,-0.00000144,0.00006079,-0.00049664,-0.
 00080609,0.00056082,0.00003426,0.00020871,-0.00072944,-0.00372279,0.00
 266339,0.00113676,-0.08726294,-0.21887480,-0.00742357,0.00234656,-0.00
 968883,-0.01442046,0.08708245,0.23933120,0.00006311,-0.00049448,-0.000
 82955,0.00017929,0.00012918,-0.00031020,-0.00004234,0.00010821,0.00006
 277,-0.00004447,0.00017362,0.00006264,-0.00053437,0.00010761,0.0004378
 4,-0.00007071,0.00003221,0.00017443,-0.00000284,-0.00001495,-0.0000279
 7,-0.00007369,-0.00001148,0.00003439,-0.00027059,-0.00029601,-0.000454
 51,0.00002226,0.00004485,0.00009853,-0.00074486,-0.00076404,0.00257374
 ,-0.00044916,-0.00220812,0.00077717,0.00021213,0.00002388,-0.00015316,
 -0.00020633,-0.00012559,0.00021034,0.00179798,0.00897942,-0.00221274,-
 0.00004896,-0.00002032,-0.00000412,0.00015356,-0.00009691,-0.00002657,
 -0.00002349,0.00003810,0.00009239,-0.00002713,-0.00001269,-0.00000682,
 -0.00003577,-0.00000046,-0.00003673,0.00017116,-0.00007567,0.00013189,
 -0.00001505,-0.00002579,-0.00000456,0.00007850,-0.00000056,0.00002129,
 -0.00046702,0.00013726,0.00001487,-0.00000330,0.00000865,-0.00002475,0
 .00098981,-0.00009423,0.00040782,0.00273621,-0.00412078,-0.02376915,-0
 .00581596,-0.01303223,0.00123249,0.00247202,0.01161131,0.02152823\\0.0
 0002890,0.00001112,0.00001101,-0.00000119,0.00000187,0.00000885,-0.000
 01641,-0.00002083,-0.00000103,-0.00000270,-0.00000005,0.00000099,0.000
 00083,-0.00000547,-0.00000378,-0.00000029,0.00002443,0.00001429,-0.000
 00175,-0.00000692,0.00000375,-0.00000193,0.00000037,0.00000261,0.00002
 148,-0.00002722,-0.00002503,0.00000205,0.00000064,0.00001087,0.0000092
 2,-0.00000028,-0.00001039,-0.00005189,-0.00000904,0.00003118,0.0000288
 7,0.00003868,-0.00001044,0.00000802,0.00000134,-0.00001256,0.00000568,
 -0.00000047,0.00000054,-0.00000282,-0.00000664,0.00000003,0.00000158,-
 0.00000287,0.00001123,-0.00000686,-0.00001158,-0.00001924,-0.00000068,
 -0.00000109,0.00000955,0.00000217,-0.00000043,-0.00000346,-0.00000595,
 0.00000212,-0.00000264,0.00000103,0.00000109,0.00000098,-0.00000360,0.
 00000200,-0.00000065,0.00000294,-0.00001820,-0.00002840,-0.00000083,0.
 00000666,0.00000028,-0.00000605,0.00001679,0.00001947,-0.00001306,0.00
 001546,-0.00002378,-0.00000146,-0.00000047,0.00000896,0.00000472,-0.00
 001100,0.00000683\\\@
 The archive entry for this job was punched.


 AN OPTIMIST IS A GUY
 THAT HAS NEVER HAD
 MUCH EXPERIENCE
   (CERTAIN MAXIMS OF ARCHY  -- DON MARQUIS)
 Job cpu time:       0 days  9 hours  2 minutes 20.3 seconds.
 Elapsed time:       0 days  0 hours 11 minutes 50.8 seconds.
 File lengths (MBytes):  RWF=   1474 Int=      0 D2E=      0 Chk=     29 Scr=      2
 Normal termination of Gaussian 16 at Sun Dec 11 11:18:48 2022.
