       N       E                     dE             d eps       ncg     rms          rms(c)
DAV:   1     0.404831665954E+03    0.40483E+03   -0.14730E+04   384   0.626E+02
DAV:   2    -0.529737382738E+02   -0.45781E+03   -0.45528E+03   384   0.161E+02
DAV:   3    -0.105472438428E+03   -0.52499E+02   -0.52499E+02   336   0.723E+01
DAV:   4    -0.106061500608E+03   -0.58906E+00   -0.58906E+00   288   0.696E+00
DAV:   5    -0.106067541215E+03   -0.60406E-02   -0.60406E-02   288   0.584E-01    0.413E+01
DAV:   6    -0.667616742192E+02    0.39306E+02   -0.92338E+01   240   0.325E+01    0.146E+01
DAV:   7    -0.850408437050E+02   -0.18279E+02   -0.33951E+01   384   0.189E+01    0.169E+01
DAV:   8    -0.927141725673E+02   -0.76733E+01   -0.66391E+00   384   0.814E+00    0.540E+00
DAV:   9    -0.967906759801E+02   -0.40765E+01   -0.17441E+00   384   0.419E+00    0.235E+00
DAV:  10    -0.998987127650E+02   -0.31080E+01   -0.82591E-01   288   0.303E+00    0.171E+00
DAV:  11    -0.101356819354E+03   -0.14581E+01   -0.25621E-01   384   0.166E+00    0.134E+00
DAV:  12    -0.102988759307E+03   -0.16319E+01   -0.36223E-01   288   0.199E+00    0.871E-01
DAV:  13    -0.103856216041E+03   -0.86746E+00   -0.22397E-01   288   0.143E+00    0.584E-01
DAV:  14    -0.104248032828E+03   -0.39182E+00   -0.29174E-02   240   0.610E-01    0.484E-01
DAV:  15    -0.104550900940E+03   -0.30287E+00   -0.11180E-02   336   0.399E-01    0.360E-01
DAV:  16    -0.104776224213E+03   -0.22532E+00   -0.69345E-03   192   0.359E-01    0.272E-01
DAV:  17    -0.104874412312E+03   -0.98188E-01   -0.20147E-03   288   0.197E-01    0.214E-01
DAV:  18    -0.104959741111E+03   -0.85329E-01   -0.90627E-04   288   0.126E-01    0.149E-01
DAV:  19    -0.105017143269E+03   -0.57402E-01   -0.26163E-04   336   0.646E-02    0.100E-01
DAV:  20    -0.105038251816E+03   -0.21109E-01   -0.36577E-04   336   0.672E-02    0.709E-02
DAV:  21    -0.105035471732E+03    0.27801E-02   -0.28118E-04   240   0.569E-02    0.444E-02
DAV:  22    -0.105037320053E+03   -0.18483E-02   -0.11019E-04   288   0.345E-02    0.297E-02
DAV:  23    -0.105046334880E+03   -0.90148E-02   -0.41437E-05   288   0.218E-02    0.182E-02
DAV:  24    -0.105053338675E+03   -0.70038E-02   -0.64451E-05   288   0.214E-02    0.105E-02
DAV:  25    -0.105058266336E+03   -0.49277E-02   -0.16920E-05   192   0.116E-02    0.662E-03
DAV:  26    -0.105061730414E+03   -0.34641E-02   -0.63740E-06   384   0.821E-03    0.486E-03
DAV:  27    -0.105064955736E+03   -0.32253E-02   -0.76879E-06   288   0.841E-03    0.269E-03
DAV:  28    -0.105066186528E+03   -0.12308E-02   -0.11963E-06   336   0.479E-03    0.157E-03
DAV:  29    -0.105066908889E+03   -0.72236E-03   -0.52385E-07   384   0.356E-03    0.887E-04
DAV:  30    -0.105067200224E+03   -0.29134E-03   -0.31020E-07   384   0.241E-03    0.572E-04
DAV:  31    -0.105067323500E+03   -0.12328E-03   -0.13287E-08   384   0.140E-03    0.296E-04
DAV:  32    -0.105067381312E+03   -0.57813E-04    0.10970E-07   384   0.911E-04    0.117E-04
DAV:  33    -0.105067396776E+03   -0.15463E-04    0.18440E-07   384   0.376E-04    0.823E-05
DAV:  34    -0.105067404032E+03   -0.72563E-05    0.21228E-07   384   0.214E-04
   1 F= -.10560468E+03 E0= -.10560468E+03  d E =-.780435E-14  mag=     0.0000
       N       E                     dE             d eps       ncg     rms          rms(c)
DAV:   1    -0.105056462748E+03    0.10934E-01   -0.13235E+00   192   0.551E+00    0.323E-01
DAV:   2    -0.105055377319E+03    0.10854E-02   -0.66869E-03   336   0.320E-01    0.171E-01
DAV:   3    -0.105054928599E+03    0.44872E-03   -0.17472E-03   384   0.154E-01    0.494E-02
DAV:   4    -0.105054880535E+03    0.48065E-04   -0.15801E-04   384   0.453E-02    0.299E-02
DAV:   5    -0.105054866254E+03    0.14281E-04   -0.46221E-05   384   0.260E-02    0.126E-02
DAV:   6    -0.105054878275E+03   -0.12021E-04   -0.64098E-06   384   0.988E-03    0.518E-03
DAV:   7    -0.105054898804E+03   -0.20529E-04   -0.17531E-06   288   0.590E-03    0.269E-03
DAV:   8    -0.105054924447E+03   -0.25642E-04   -0.12691E-06   384   0.426E-03    0.202E-03
DAV:   9    -0.105054956851E+03   -0.32404E-04   -0.11295E-06   336   0.327E-03    0.113E-03
DAV:  10    -0.105054982863E+03   -0.26012E-04   -0.66393E-07   384   0.232E-03    0.801E-04
DAV:  11    -0.105055008540E+03   -0.25678E-04   -0.59485E-07   384   0.210E-03    0.467E-04
DAV:  12    -0.105055026776E+03   -0.18235E-04   -0.30633E-07   384   0.155E-03    0.247E-04
DAV:  13    -0.105055035474E+03   -0.86983E-05    0.48062E-08   384   0.749E-04
   2 F= -.10559265E+03 E0= -.10559265E+03  d E =-.122074E-46  mag=     0.0000
       N       E                     dE             d eps       ncg     rms          rms(c)
DAV:   1    -0.105063069139E+03   -0.80424E-02   -0.52459E+00   192   0.896E+00    0.600E-01
DAV:   2    -0.105057896740E+03    0.51724E-02   -0.18399E-02   336   0.527E-01    0.352E-01
DAV:   3    -0.105056096655E+03    0.18001E-02   -0.56401E-03   384   0.277E-01    0.106E-01
DAV:   4    -0.105056008359E+03    0.88296E-04   -0.99363E-04   384   0.105E-01    0.664E-02
DAV:   5    -0.105056040813E+03   -0.32454E-04   -0.23163E-04   384   0.490E-02    0.212E-02
DAV:   6    -0.105056152730E+03   -0.11192E-03   -0.27045E-05   288   0.196E-02    0.924E-03
DAV:   7    -0.105056243052E+03   -0.90322E-04   -0.99742E-06   384   0.119E-02    0.478E-03
DAV:   8    -0.105056340925E+03   -0.97873E-04   -0.66639E-06   288   0.788E-03    0.301E-03
DAV:   9    -0.105056441045E+03   -0.10012E-03   -0.87405E-06   336   0.849E-03    0.197E-03
DAV:  10    -0.105056508778E+03   -0.67734E-04   -0.51297E-06   384   0.610E-03    0.140E-03
DAV:  11    -0.105056551799E+03   -0.43021E-04   -0.20484E-06   336   0.387E-03    0.805E-04
DAV:  12    -0.105056580726E+03   -0.28927E-04   -0.10320E-06   384   0.272E-03    0.480E-04
DAV:  13    -0.105056594119E+03   -0.13393E-04   -0.14394E-07   384   0.125E-03    0.332E-04
DAV:  14    -0.105056609825E+03   -0.15706E-04   -0.21829E-07   288   0.141E-03    0.178E-04
DAV:  15    -0.105056613875E+03   -0.40498E-05    0.11001E-07   384   0.441E-04
   3 F= -.10559354E+03 E0= -.10559354E+03  d E =-.347791E-16  mag=     0.0000
       N       E                     dE             d eps       ncg     rms          rms(c)
DAV:   1    -0.105068853115E+03   -0.12243E-01   -0.26135E+00   192   0.615E+00    0.340E-01
DAV:   2    -0.105067465274E+03    0.13878E-02   -0.63899E-03   288   0.363E-01    0.190E-01
DAV:   3    -0.105067032225E+03    0.43305E-03   -0.19842E-03   384   0.180E-01    0.496E-02
DAV:   4    -0.105066997625E+03    0.34600E-04   -0.21549E-04   384   0.495E-02    0.324E-02
DAV:   5    -0.105066985958E+03    0.11667E-04   -0.49111E-05   288   0.288E-02    0.118E-02
DAV:   6    -0.105066999575E+03   -0.13617E-04   -0.98351E-06   384   0.130E-02    0.507E-03
DAV:   7    -0.105067017516E+03   -0.17941E-04   -0.15412E-06   384   0.483E-03    0.283E-03
DAV:   8    -0.105067047858E+03   -0.30342E-04   -0.12752E-06   192   0.462E-03    0.152E-03
DAV:   9    -0.105067092201E+03   -0.44344E-04   -0.25071E-06   288   0.566E-03    0.968E-04
DAV:  10    -0.105067117495E+03   -0.25294E-04   -0.68620E-07   384   0.252E-03    0.585E-04
DAV:  11    -0.105067136419E+03   -0.18924E-04   -0.26911E-07   384   0.157E-03    0.353E-04
DAV:  12    -0.105067149829E+03   -0.13410E-04   -0.11327E-07   288   0.126E-03    0.228E-04
DAV:  13    -0.105067156250E+03   -0.64210E-05    0.93271E-08   384   0.598E-04
   4 F= -.10560443E+03 E0= -.10560443E+03  d E =-.479187E-15  mag=     0.0000
       N       E                     dE             d eps       ncg     rms          rms(c)
DAV:   1    -0.105067699012E+03   -0.54918E-03   -0.51653E+00   192   0.103E+01    0.318E-01
DAV:   2    -0.105067348151E+03    0.35086E-03   -0.10347E-02   384   0.501E-01    0.172E-01
DAV:   3    -0.105067172885E+03    0.17527E-03   -0.15390E-03   192   0.174E-01    0.285E-02
DAV:   4    -0.105067186675E+03   -0.13790E-04   -0.10843E-04   384   0.444E-02    0.166E-02
DAV:   5    -0.105067196567E+03   -0.98926E-05   -0.13191E-05   384   0.150E-02
   5 F= -.10560447E+03 E0= -.10560447E+03  d E =-.558106E-15  mag=     0.0000
       N       E                     dE             d eps       ncg     rms          rms(c)
DAV:   1    -0.105067435192E+03   -0.24852E-03   -0.25823E+00   192   0.733E+00    0.225E-01
DAV:   2    -0.105067235500E+03    0.19969E-03   -0.52207E-03   288   0.360E-01    0.122E-01
DAV:   3    -0.105067211895E+03    0.23605E-04   -0.75865E-04   192   0.123E-01    0.197E-02
DAV:   4    -0.105067222709E+03   -0.10814E-04   -0.53142E-05   384   0.317E-02    0.115E-02
DAV:   5    -0.105067227088E+03   -0.43794E-05   -0.46384E-06   384   0.978E-03
   6 F= -.10560450E+03 E0= -.10560450E+03  d E =-.445307E-15  mag=     0.0000
       N       E                     dE             d eps       ncg     rms          rms(c)
DAV:   1    -0.105067637814E+03   -0.41510E-03   -0.51647E+00   192   0.103E+01    0.319E-01
DAV:   2    -0.105067228599E+03    0.40921E-03   -0.10395E-02   384   0.499E-01    0.172E-01
DAV:   3    -0.105067110377E+03    0.11822E-03   -0.15029E-03   288   0.167E-01    0.297E-02
DAV:   4    -0.105067125758E+03   -0.15381E-04   -0.96455E-05   384   0.396E-02    0.167E-02
DAV:   5    -0.105067131040E+03   -0.52821E-05   -0.13151E-05   384   0.144E-02
   7 F= -.10560440E+03 E0= -.10560440E+03  d E =-.511121E-15  mag=     0.0000
       N       E                     dE             d eps       ncg     rms          rms(c)
DAV:   1    -0.105066820954E+03    0.30480E-03   -0.25775E+00   192   0.770E+00    0.219E-01
DAV:   2    -0.105067095670E+03   -0.27472E-03   -0.96043E-03   288   0.478E-01    0.127E-01
DAV:   3    -0.105067059928E+03    0.35742E-04   -0.83958E-04   192   0.139E-01    0.201E-02
DAV:   4    -0.105067073550E+03   -0.13623E-04   -0.82392E-05   384   0.410E-02    0.128E-02
DAV:   5    -0.105067075195E+03   -0.16444E-05   -0.53894E-06   384   0.986E-03
   8 F= -.10560435E+03 E0= -.10560435E+03  d E =-.306603E-15  mag=     0.0000
       N       E                     dE             d eps       ncg     rms          rms(c)
DAV:   1    -0.105067865894E+03   -0.79234E-03   -0.51644E+00   192   0.978E+00    0.320E-01
DAV:   2    -0.105067426753E+03    0.43914E-03   -0.97230E-03   384   0.475E-01    0.171E-01
DAV:   3    -0.105067267491E+03    0.15926E-03   -0.15069E-03   288   0.163E-01    0.274E-02
DAV:   4    -0.105067282931E+03   -0.15440E-04   -0.74049E-05   384   0.351E-02    0.159E-02
DAV:   5    -0.105067289114E+03   -0.61827E-05   -0.12812E-05   288   0.141E-02
   9 F= -.10560456E+03 E0= -.10560456E+03  d E =-.524626E-15  mag=     0.0000
       N       E                     dE             d eps       ncg     rms          rms(c)
DAV:   1    -0.105058428955E+03    0.88540E-02   -0.25961E+00   192   0.716E+00    0.358E-01
DAV:   2    -0.105057249320E+03    0.11796E-02   -0.82282E-03   288   0.341E-01    0.184E-01
DAV:   3    -0.105056764420E+03    0.48490E-03   -0.18659E-03   384   0.156E-01    0.516E-02
DAV:   4    -0.105056734557E+03    0.29863E-04   -0.20839E-04   384   0.497E-02    0.313E-02
DAV:   5    -0.105056742584E+03   -0.80273E-05   -0.26645E-05   384   0.182E-02
  10 F= -.10559367E+03 E0= -.10559367E+03  d E =-.482088E-14  mag=     0.0000
       N       E                     dE             d eps       ncg     rms          rms(c)
DAV:   1    -0.105060725047E+03   -0.39905E-02   -0.52999E+00   192   0.861E+00    0.616E-01
DAV:   2    -0.105056035626E+03    0.46894E-02   -0.18768E-02   288   0.545E-01    0.346E-01
DAV:   3    -0.105054516930E+03    0.15187E-02   -0.63699E-03   384   0.283E-01    0.108E-01
DAV:   4    -0.105054367663E+03    0.14927E-03   -0.81985E-04   384   0.898E-02    0.602E-02
DAV:   5    -0.105054308746E+03    0.58917E-04   -0.18385E-04   384   0.494E-02    0.192E-02
DAV:   6    -0.105054318693E+03   -0.99470E-05   -0.36379E-05   384   0.221E-02
  11 F= -.10559193E+03 E0= -.10559193E+03  d E =-.603670E-42  mag=     0.0000
       N       E                     dE             d eps       ncg     rms          rms(c)
DAV:   1    -0.105068641806E+03   -0.14333E-01   -0.26065E+00   192   0.629E+00    0.348E-01
DAV:   2    -0.105067433849E+03    0.12080E-02   -0.79747E-03   384   0.356E-01    0.198E-01
DAV:   3    -0.105067203460E+03    0.23039E-03   -0.20320E-03   384   0.183E-01    0.511E-02
DAV:   4    -0.105067202702E+03    0.75833E-06   -0.26449E-04   384   0.572E-02    0.344E-02
DAV:   5    -0.105067206726E+03   -0.40240E-05   -0.52386E-05   384   0.281E-02
  12 F= -.10560448E+03 E0= -.10560448E+03  d E =-.537806E-16  mag=     0.0000
       N       E                     dE             d eps       ncg     rms          rms(c)
DAV:   1    -0.105067339187E+03   -0.13649E-03   -0.51622E+00   192   0.998E+00    0.319E-01
DAV:   2    -0.105067166126E+03    0.17306E-03   -0.12505E-02   384   0.506E-01    0.174E-01
DAV:   3    -0.105067049471E+03    0.11665E-03   -0.15962E-03   192   0.165E-01    0.305E-02
DAV:   4    -0.105067073345E+03   -0.23874E-04   -0.14613E-04   384   0.488E-02    0.177E-02
DAV:   5    -0.105067084192E+03   -0.10847E-04   -0.13809E-05   384   0.143E-02    0.883E-03
DAV:   6    -0.105067093985E+03   -0.97929E-05   -0.47641E-06   192   0.830E-03
  13 F= -.10560437E+03 E0= -.10560437E+03  d E =-.192584E-15  mag=     0.0000
       N       E                     dE             d eps       ncg     rms          rms(c)
DAV:   1    -0.105067019999E+03    0.64193E-04   -0.25800E+00   192   0.769E+00    0.220E-01
DAV:   2    -0.105067175907E+03   -0.15591E-03   -0.86317E-03   288   0.460E-01    0.127E-01
DAV:   3    -0.105067157993E+03    0.17914E-04   -0.87611E-04   192   0.140E-01    0.198E-02
DAV:   4    -0.105067168398E+03   -0.10406E-04   -0.81020E-05   384   0.418E-02    0.127E-02
DAV:   5    -0.105067171415E+03   -0.30165E-05   -0.55238E-06   384   0.106E-02
  14 F= -.10560444E+03 E0= -.10560444E+03  d E =-.269215E-15  mag=     0.0000
       N       E                     dE             d eps       ncg     rms          rms(c)
DAV:   1    -0.105067829406E+03   -0.66101E-03   -0.51652E+00   192   0.993E+00    0.319E-01
DAV:   2    -0.105067275846E+03    0.55356E-03   -0.90495E-03   384   0.442E-01    0.171E-01
DAV:   3    -0.105067159269E+03    0.11658E-03   -0.15161E-03   288   0.158E-01    0.282E-02
DAV:   4    -0.105067170147E+03   -0.10878E-04   -0.88410E-05   384   0.354E-02    0.165E-02
DAV:   5    -0.105067175493E+03   -0.53456E-05   -0.12632E-05   192   0.143E-02
  15 F= -.10560445E+03 E0= -.10560445E+03  d E =-.545592E-15  mag=     0.0000
       N       E                     dE             d eps       ncg     rms          rms(c)
DAV:   1    -0.105067451691E+03   -0.28154E-03   -0.25825E+00   192   0.698E+00    0.226E-01
DAV:   2    -0.105067223221E+03    0.22847E-03   -0.50372E-03   192   0.323E-01    0.124E-01
DAV:   3    -0.105067205748E+03    0.17472E-04   -0.84011E-04   192   0.122E-01    0.193E-02
DAV:   4    -0.105067214497E+03   -0.87490E-05   -0.59376E-05   384   0.308E-02
  16 F= -.10560449E+03 E0= -.10560449E+03  d E =-.534575E-15  mag=     0.0000
       N       E                     dE             d eps       ncg     rms          rms(c)
DAV:   1    -0.105067654387E+03   -0.44864E-03   -0.51618E+00   192   0.990E+00    0.317E-01
DAV:   2    -0.105067259180E+03    0.39521E-03   -0.10113E-02   384   0.462E-01    0.172E-01
DAV:   3    -0.105067128881E+03    0.13030E-03   -0.15475E-03   288   0.163E-01    0.272E-02
DAV:   4    -0.105067139360E+03   -0.10479E-04   -0.81396E-05   384   0.352E-02    0.159E-02
DAV:   5    -0.105067146551E+03   -0.71910E-05   -0.13367E-05   192   0.147E-02
  17 F= -.10560442E+03 E0= -.10560442E+03  d E =-.635197E-15  mag=     0.0000
       N       E                     dE             d eps       ncg     rms          rms(c)
DAV:   1    -0.105056981905E+03    0.10157E-01   -0.26217E+00   192   0.732E+00    0.351E-01
DAV:   2    -0.105055567800E+03    0.14141E-02   -0.73524E-03   288   0.342E-01    0.198E-01
DAV:   3    -0.105055109283E+03    0.45852E-03   -0.24838E-03   384   0.179E-01    0.535E-02
DAV:   4    -0.105055066006E+03    0.43277E-04   -0.25341E-04   384   0.549E-02    0.338E-02
DAV:   5    -0.105055054344E+03    0.11661E-04   -0.67814E-05   384   0.311E-02    0.121E-02
DAV:   6    -0.105055065136E+03   -0.10791E-04   -0.94996E-06   384   0.105E-02    0.506E-03
DAV:   7    -0.105055083993E+03   -0.18857E-04   -0.17581E-06   384   0.471E-03    0.275E-03
DAV:   8    -0.105055111688E+03   -0.27695E-04   -0.15077E-06   384   0.480E-03    0.181E-03
DAV:   9    -0.105055152629E+03   -0.40940E-04   -0.20095E-06   288   0.415E-03    0.914E-04
DAV:  10    -0.105055185479E+03   -0.32850E-04   -0.11578E-06   384   0.292E-03    0.642E-04
DAV:  11    -0.105055209751E+03   -0.24272E-04   -0.52506E-07   384   0.188E-03    0.318E-04
DAV:  12    -0.105055221792E+03   -0.12042E-04   -0.68669E-08   384   0.102E-03    0.217E-04
DAV:  13    -0.105055233723E+03   -0.11931E-04    0.10359E-08   384   0.974E-04    0.118E-04
DAV:  14    -0.105055237540E+03   -0.38168E-05    0.18899E-07   384   0.388E-04
  18 F= -.10559285E+03 E0= -.10559285E+03  d E =-.935411E-41  mag=     0.0000
       N       E                     dE             d eps       ncg     rms          rms(c)
DAV:   1    -0.105062793944E+03   -0.75602E-02   -0.52460E+00   192   0.880E+00    0.600E-01
DAV:   2    -0.105057503739E+03    0.52902E-02   -0.18355E-02   288   0.533E-01    0.351E-01
DAV:   3    -0.105055775693E+03    0.17280E-02   -0.56283E-03   384   0.276E-01    0.106E-01
DAV:   4    -0.105055681218E+03    0.94475E-04   -0.94255E-04   384   0.104E-01    0.647E-02
DAV:   5    -0.105055712747E+03   -0.31529E-04   -0.22812E-04   384   0.485E-02    0.212E-02
DAV:   6    -0.105055822096E+03   -0.10935E-03   -0.26623E-05   384   0.193E-02    0.909E-03
DAV:   7    -0.105055910708E+03   -0.88612E-04   -0.93600E-06   384   0.116E-02    0.480E-03
DAV:   8    -0.105056012597E+03   -0.10189E-03   -0.74078E-06   288   0.832E-03    0.292E-03
DAV:   9    -0.105056128509E+03   -0.11591E-03   -0.12234E-05   384   0.101E-02    0.177E-03
DAV:  10    -0.105056188594E+03   -0.60086E-04   -0.38789E-06   384   0.532E-03    0.125E-03
DAV:  11    -0.105056231089E+03   -0.42495E-04   -0.19112E-06   288   0.378E-03    0.664E-04
DAV:  12    -0.105056260019E+03   -0.28930E-04   -0.10096E-06   384   0.261E-03    0.407E-04
DAV:  13    -0.105056279669E+03   -0.19650E-04   -0.27425E-07   288   0.156E-03    0.222E-04
DAV:  14    -0.105056287829E+03   -0.81598E-05    0.37405E-08   384   0.789E-04
  19 F= -.10559322E+03 E0= -.10559322E+03  d E =-.126263E-17  mag=     0.0000
       N       E                     dE             d eps       ncg     rms          rms(c)
DAV:   1    -0.105057824598E+03   -0.15449E-02   -0.26191E+00   192   0.785E+00    0.439E-01
DAV:   2    -0.105056734355E+03    0.10902E-02   -0.18456E-02   288   0.630E-01    0.234E-01
DAV:   3    -0.105055805172E+03    0.92918E-03   -0.27229E-03   384   0.232E-01    0.594E-02
DAV:   4    -0.105055704631E+03    0.10054E-03   -0.22645E-04   384   0.691E-02    0.297E-02
DAV:   5    -0.105055728070E+03   -0.23438E-04   -0.43884E-05   384   0.329E-02    0.120E-02
DAV:   6    -0.105055780456E+03   -0.52387E-04   -0.10147E-05   384   0.140E-02    0.526E-03
DAV:   7    -0.105055843789E+03   -0.63332E-04   -0.44093E-06   384   0.874E-03    0.279E-03
DAV:   8    -0.105055900872E+03   -0.57083E-04   -0.27277E-06   288   0.571E-03    0.216E-03
DAV:   9    -0.105055957498E+03   -0.56626E-04   -0.26908E-06   288   0.507E-03    0.136E-03
DAV:  10    -0.105056012722E+03   -0.55224E-04   -0.31932E-06   288   0.507E-03    0.775E-04
DAV:  11    -0.105056041802E+03   -0.29080E-04   -0.77142E-07   384   0.254E-03    0.501E-04
DAV:  12    -0.105056067219E+03   -0.25417E-04   -0.69719E-07   288   0.216E-03    0.294E-04
DAV:  13    -0.105056077122E+03   -0.99035E-05    0.16136E-08   384   0.859E-04
  20 F= -.10559301E+03 E0= -.10559301E+03  d E =-.217097E-16  mag=     0.0000
       N       E                     dE             d eps       ncg     rms          rms(c)
DAV:   1    -0.105061976040E+03   -0.59088E-02   -0.53031E+00   192   0.877E+00    0.610E-01
DAV:   2    -0.105056805479E+03    0.51706E-02   -0.17952E-02   288   0.554E-01    0.349E-01
DAV:   3    -0.105055158187E+03    0.16473E-02   -0.60801E-03   384   0.285E-01    0.106E-01
DAV:   4    -0.105055001792E+03    0.15639E-03   -0.84618E-04   384   0.969E-02    0.616E-02
DAV:   5    -0.105054957663E+03    0.44130E-04   -0.20657E-04   384   0.494E-02    0.200E-02
DAV:   6    -0.105054999601E+03   -0.41938E-04   -0.26595E-05   384   0.204E-02    0.904E-03
DAV:   7    -0.105055060421E+03   -0.60820E-04   -0.46213E-06   384   0.811E-03    0.515E-03
DAV:   8    -0.105055154363E+03   -0.93942E-04   -0.47223E-06   192   0.780E-03    0.291E-03
DAV:   9    -0.105055285023E+03   -0.13066E-03   -0.92550E-06   288   0.928E-03    0.169E-03
DAV:  10    -0.105055362839E+03   -0.77817E-04   -0.29836E-06   384   0.475E-03    0.993E-04
DAV:  11    -0.105055418874E+03   -0.56034E-04   -0.16223E-06   384   0.332E-03    0.547E-04
DAV:  12    -0.105055447143E+03   -0.28270E-04   -0.40079E-07   384   0.175E-03    0.363E-04
DAV:  13    -0.105055470948E+03   -0.23805E-04   -0.26088E-07   384   0.148E-03    0.203E-04
DAV:  14    -0.105055479743E+03   -0.87943E-05    0.49846E-08   384   0.747E-04
  21 F= -.10559310E+03 E0= -.10559310E+03  d E =-.120162E-43  mag=     0.0000
       N       E                     dE             d eps       ncg     rms          rms(c)
DAV:   1    -0.105069069968E+03   -0.13599E-01   -0.26078E+00   192   0.634E+00    0.346E-01
DAV:   2    -0.105067554135E+03    0.15158E-02   -0.71849E-03   288   0.365E-01    0.199E-01
DAV:   3    -0.105067037949E+03    0.51619E-03   -0.20606E-03   384   0.187E-01    0.517E-02
DAV:   4    -0.105067022268E+03    0.15681E-04   -0.28009E-04   384   0.604E-02    0.358E-02
DAV:   5    -0.105067035117E+03   -0.12849E-04   -0.60736E-05   384   0.300E-02    0.127E-02
DAV:   6    -0.105067069639E+03   -0.34522E-04   -0.79282E-06   192   0.112E-02    0.483E-03
DAV:   7    -0.105067101118E+03   -0.31479E-04   -0.23658E-06   384   0.590E-03    0.225E-03
DAV:   8    -0.105067133987E+03   -0.32869E-04   -0.16123E-06   192   0.454E-03    0.149E-03
DAV:   9    -0.105067181365E+03   -0.47378E-04   -0.44512E-06   288   0.665E-03    0.860E-04
DAV:  10    -0.105067202387E+03   -0.21022E-04   -0.10406E-06   384   0.304E-03    0.653E-04
DAV:  11    -0.105067216515E+03   -0.14128E-04   -0.28628E-07   288   0.176E-03    0.324E-04
DAV:  12    -0.105067226526E+03   -0.10011E-04   -0.20425E-07   288   0.147E-03    0.220E-04
DAV:  13    -0.105067230944E+03   -0.44184E-05    0.10783E-07   384   0.560E-04
  22 F= -.10560450E+03 E0= -.10560450E+03  d E =-.962200E-15  mag=     0.0000
       N       E                     dE             d eps       ncg     rms          rms(c)
DAV:   1    -0.105067589505E+03   -0.36298E-03   -0.51645E+00   192   0.104E+01    0.319E-01
DAV:   2    -0.105067268519E+03    0.32099E-03   -0.10593E-02   384   0.507E-01    0.172E-01
DAV:   3    -0.105067097489E+03    0.17103E-03   -0.15324E-03   288   0.172E-01    0.283E-02
DAV:   4    -0.105067111973E+03   -0.14484E-04   -0.80126E-05   384   0.375E-02    0.162E-02
DAV:   5    -0.105067121847E+03   -0.98735E-05   -0.12769E-05   192   0.151E-02
  23 F= -.10560439E+03 E0= -.10560439E+03  d E =-.950553E-15  mag=     0.0000
       N       E                     dE             d eps       ncg     rms          rms(c)
DAV:   1    -0.105067432417E+03   -0.32044E-03   -0.25825E+00   192   0.740E+00    0.225E-01
DAV:   2    -0.105067212639E+03    0.21978E-03   -0.50358E-03   288   0.339E-01    0.122E-01
DAV:   3    -0.105067188708E+03    0.23931E-04   -0.77106E-04   192   0.122E-01    0.191E-02
DAV:   4    -0.105067197376E+03   -0.86680E-05   -0.52471E-05   384   0.307E-02
  24 F= -.10560447E+03 E0= -.10560447E+03  d E =-.708220E-15  mag=     0.0000
       N       E                     dE             d eps       ncg     rms          rms(c)
DAV:   1    -0.105067552697E+03   -0.36399E-03   -0.51600E+00   192   0.102E+01    0.317E-01
DAV:   2    -0.105067247286E+03    0.30541E-03   -0.11327E-02   384   0.507E-01    0.172E-01
DAV:   3    -0.105067125391E+03    0.12189E-03   -0.15170E-03   192   0.168E-01    0.289E-02
DAV:   4    -0.105067139660E+03   -0.14268E-04   -0.11681E-04   384   0.437E-02    0.168E-02
DAV:   5    -0.105067144133E+03   -0.44729E-05   -0.12838E-05   384   0.143E-02
  25 F= -.10560442E+03 E0= -.10560442E+03  d E =-.416926E-15  mag=     0.0000
       N       E                     dE             d eps       ncg     rms          rms(c)
DAV:   1    -0.105066783948E+03    0.35571E-03   -0.25779E+00   192   0.770E+00    0.220E-01
DAV:   2    -0.105066990338E+03   -0.20639E-03   -0.90407E-03   288   0.460E-01    0.127E-01
DAV:   3    -0.105066960794E+03    0.29544E-04   -0.82798E-04   192   0.137E-01    0.203E-02
DAV:   4    -0.105066974635E+03   -0.13841E-04   -0.80329E-05   384   0.399E-02    0.126E-02
DAV:   5    -0.105066976565E+03   -0.19301E-05   -0.44971E-06   384   0.102E-02
  26 F= -.10560425E+03 E0= -.10560425E+03  d E =-.301930E-15  mag=     0.0000
       N       E                     dE             d eps       ncg     rms          rms(c)
DAV:   1    -0.105067954456E+03   -0.97982E-03   -0.51648E+00   192   0.964E+00    0.319E-01
DAV:   2    -0.105067519366E+03    0.43509E-03   -0.97552E-03   384   0.486E-01    0.172E-01
DAV:   3    -0.105067359943E+03    0.15942E-03   -0.15092E-03   192   0.165E-01    0.275E-02
DAV:   4    -0.105067375853E+03   -0.15909E-04   -0.10078E-04   384   0.417E-02    0.164E-02
DAV:   5    -0.105067381693E+03   -0.58406E-05   -0.12983E-05   384   0.144E-02
  27 F= -.10560465E+03 E0= -.10560465E+03  d E =-.568794E-15  mag=    -0.0000
       N       E                     dE             d eps       ncg     rms          rms(c)
DAV:   1    -0.105056596538E+03    0.10779E-01   -0.26200E+00   192   0.727E+00    0.366E-01
DAV:   2    -0.105055365358E+03    0.12312E-02   -0.85958E-03   288   0.364E-01    0.192E-01
DAV:   3    -0.105054882941E+03    0.48242E-03   -0.22266E-03   384   0.170E-01    0.509E-02
DAV:   4    -0.105054842480E+03    0.40462E-04   -0.17919E-04   384   0.476E-02    0.316E-02
DAV:   5    -0.105054829490E+03    0.12990E-04   -0.39359E-05   384   0.237E-02    0.155E-02
DAV:   6    -0.105054837559E+03   -0.80693E-05   -0.88893E-06   384   0.125E-02
  28 F= -.10559245E+03 E0= -.10559245E+03  d E =-.125274E-43  mag=    -0.0000
       N       E                     dE             d eps       ncg     rms          rms(c)
DAV:   1    -0.105062639679E+03   -0.78102E-02   -0.52436E+00   192   0.890E+00    0.605E-01
DAV:   2    -0.105057910071E+03    0.47296E-02   -0.18765E-02   288   0.510E-01    0.348E-01
DAV:   3    -0.105056185219E+03    0.17249E-02   -0.59188E-03   384   0.276E-01    0.106E-01
DAV:   4    -0.105056079919E+03    0.10530E-03   -0.92303E-04   384   0.981E-02    0.649E-02
DAV:   5    -0.105056096889E+03   -0.16970E-04   -0.21538E-04   384   0.492E-02    0.201E-02
DAV:   6    -0.105056180067E+03   -0.83178E-04   -0.28005E-05   384   0.192E-02    0.889E-03
DAV:   7    -0.105056246785E+03   -0.66719E-04   -0.70025E-06   288   0.910E-03    0.444E-03
DAV:   8    -0.105056321853E+03   -0.75068E-04   -0.58424E-06   288   0.767E-03    0.266E-03
DAV:   9    -0.105056399546E+03   -0.77693E-04   -0.65719E-06   192   0.714E-03    0.153E-03
DAV:  10    -0.105056453559E+03   -0.54013E-04   -0.44890E-06   384   0.554E-03    0.110E-03
DAV:  11    -0.105056491842E+03   -0.38283E-04   -0.22805E-06   288   0.382E-03    0.614E-04
DAV:  12    -0.105056515889E+03   -0.24047E-04   -0.10335E-06   384   0.258E-03    0.354E-04
DAV:  13    -0.105056531612E+03   -0.15723E-04   -0.26695E-07   288   0.163E-03    0.185E-04
DAV:  14    -0.105056538535E+03   -0.69229E-05    0.13781E-08   384   0.889E-04
  29 F= -.10559347E+03 E0= -.10559347E+03  d E =-.309423E-13  mag=    -0.0000
       N       E                     dE             d eps       ncg     rms          rms(c)
DAV:   1    -0.105069034730E+03   -0.12503E-01   -0.26135E+00   192   0.604E+00    0.341E-01
DAV:   2    -0.105067644750E+03    0.13900E-02   -0.64426E-03   288   0.357E-01    0.190E-01
DAV:   3    -0.105067201742E+03    0.44301E-03   -0.19758E-03   384   0.181E-01    0.486E-02
DAV:   4    -0.105067171088E+03    0.30654E-04   -0.21321E-04   384   0.496E-02    0.322E-02
DAV:   5    -0.105067159155E+03    0.11932E-04   -0.48708E-05   384   0.274E-02    0.118E-02
DAV:   6    -0.105067172611E+03   -0.13455E-04   -0.88977E-06   384   0.115E-02    0.489E-03
DAV:   7    -0.105067191206E+03   -0.18595E-04   -0.15331E-06   384   0.450E-03    0.280E-03
DAV:   8    -0.105067221560E+03   -0.30354E-04   -0.12164E-06   192   0.440E-03    0.154E-03
DAV:   9    -0.105067266397E+03   -0.44837E-04   -0.23868E-06   288   0.495E-03    0.940E-04
DAV:  10    -0.105067296284E+03   -0.29887E-04   -0.85939E-07   384   0.265E-03    0.519E-04
DAV:  11    -0.105067317957E+03   -0.21673E-04   -0.43766E-07   384   0.191E-03    0.289E-04
DAV:  12    -0.105067329000E+03   -0.11043E-04   -0.19797E-08   384   0.104E-03    0.198E-04
DAV:  13    -0.105067339863E+03   -0.10863E-04   -0.56069E-10   384   0.963E-04    0.128E-04
DAV:  14    -0.105067343926E+03   -0.40634E-05    0.15645E-07   384   0.437E-04
  30 F= -.10560462E+03 E0= -.10560462E+03  d E =-.608806E-15  mag=    -0.0000
       N       E                     dE             d eps       ncg     rms          rms(c)
DAV:   1    -0.105067621399E+03   -0.28154E-03   -0.51660E+00   192   0.963E+00    0.318E-01
DAV:   2    -0.105067101974E+03    0.51943E-03   -0.98236E-03   384   0.476E-01    0.172E-01
DAV:   3    -0.105066986035E+03    0.11594E-03   -0.15083E-03   288   0.159E-01    0.279E-02
DAV:   4    -0.105067002298E+03   -0.16264E-04   -0.77628E-05   384   0.348E-02    0.158E-02
DAV:   5    -0.105067011082E+03   -0.87837E-05   -0.13917E-05   384   0.142E-02
  31 F= -.10560428E+03 E0= -.10560428E+03  d E =-.305715E-15  mag=    -0.0000
       N       E                     dE             d eps       ncg     rms          rms(c)
DAV:   1    -0.105066987338E+03    0.14960E-04   -0.25789E+00   192   0.772E+00    0.220E-01
DAV:   2    -0.105067147376E+03   -0.16004E-03   -0.86006E-03   288   0.454E-01    0.126E-01
DAV:   3    -0.105067132648E+03    0.14728E-04   -0.85868E-04   288   0.138E-01    0.197E-02
DAV:   4    -0.105067143696E+03   -0.11048E-04   -0.67109E-05   384   0.364E-02    0.124E-02
DAV:   5    -0.105067146650E+03   -0.29544E-05   -0.50283E-06   384   0.106E-02
  32 F= -.10560442E+03 E0= -.10560442E+03  d E =-.622789E-15  mag=     0.0000
       N       E                     dE             d eps       ncg     rms          rms(c)
DAV:   1    -0.105067810535E+03   -0.66684E-03   -0.51652E+00   192   0.999E+00    0.319E-01
DAV:   2    -0.105067320732E+03    0.48980E-03   -0.95115E-03   384   0.451E-01    0.171E-01
DAV:   3    -0.105067192549E+03    0.12818E-03   -0.14968E-03   288   0.166E-01    0.282E-02
DAV:   4    -0.105067205065E+03   -0.12516E-04   -0.84289E-05   384   0.363E-02    0.162E-02
DAV:   5    -0.105067210089E+03   -0.50240E-05   -0.13098E-05   192   0.144E-02
  33 F= -.10560448E+03 E0= -.10560448E+03  d E =-.632919E-15  mag=    -0.0000
       N       E                     dE             d eps       ncg     rms          rms(c)
DAV:   1    -0.105067429821E+03   -0.22476E-03   -0.25824E+00   192   0.713E+00    0.225E-01
DAV:   2    -0.105067181708E+03    0.24811E-03   -0.49392E-03   192   0.328E-01    0.124E-01
DAV:   3    -0.105067172852E+03    0.88567E-05   -0.89367E-04   288   0.129E-01    0.199E-02
DAV:   4    -0.105067177825E+03   -0.49729E-05   -0.50567E-05   384   0.287E-02
  34 F= -.10560445E+03 E0= -.10560445E+03  d E =-.604514E-15  mag=    -0.0000
       N       E                     dE             d eps       ncg     rms          rms(c)
DAV:   1    -0.105067734379E+03   -0.56153E-03   -0.51621E+00   192   0.102E+01    0.319E-01
DAV:   2    -0.105067306300E+03    0.42808E-03   -0.97725E-03   288   0.460E-01    0.171E-01
DAV:   3    -0.105067164904E+03    0.14140E-03   -0.15008E-03   192   0.168E-01    0.289E-02
DAV:   4    -0.105067179848E+03   -0.14944E-04   -0.11718E-04   384   0.427E-02    0.170E-02
DAV:   5    -0.105067185926E+03   -0.60780E-05   -0.13371E-05   384   0.141E-02
  35 F= -.10560446E+03 E0= -.10560446E+03  d E =-.826256E-15  mag=    -0.0000
       N       E                     dE             d eps       ncg     rms          rms(c)
DAV:   1    -0.105057633251E+03    0.95466E-02   -0.25948E+00   192   0.742E+00    0.352E-01
DAV:   2    -0.105056487480E+03    0.11458E-02   -0.82095E-03   288   0.347E-01    0.186E-01
DAV:   3    -0.105056019544E+03    0.46794E-03   -0.20411E-03   384   0.166E-01    0.508E-02
DAV:   4    -0.105055985100E+03    0.34445E-04   -0.21564E-04   384   0.519E-02    0.315E-02
DAV:   5    -0.105055993890E+03   -0.87903E-05   -0.30498E-05   384   0.203E-02
  36 F= -.10559292E+03 E0= -.10559292E+03  d E =-.350994E-17  mag=    -0.0000
       N       E                     dE             d eps       ncg     rms          rms(c)
DAV:   1    -0.105061578222E+03   -0.55931E-02   -0.52991E+00   192   0.904E+00    0.611E-01
DAV:   2    -0.105056748287E+03    0.48299E-02   -0.18731E-02   288   0.549E-01    0.348E-01
DAV:   3    -0.105055368809E+03    0.13795E-02   -0.64328E-03   288   0.292E-01    0.107E-01
DAV:   4    -0.105055222350E+03    0.14646E-03   -0.87275E-04   384   0.946E-02    0.616E-02
DAV:   5    -0.105055164657E+03    0.57693E-04   -0.19068E-04   384   0.496E-02    0.194E-02
DAV:   6    -0.105055171573E+03   -0.69168E-05   -0.33451E-05   384   0.216E-02
  37 F= -.10559279E+03 E0= -.10559279E+03  d E =-.320127E-41  mag=    -0.0000
       N       E                     dE             d eps       ncg     rms          rms(c)
DAV:   1    -0.105065139904E+03   -0.99752E-02   -0.19908E+00   192   0.537E+00    0.370E-01
DAV:   2    -0.105063278811E+03    0.18611E-02   -0.22684E-02   288   0.681E-01    0.203E-01
DAV:   3    -0.105062769303E+03    0.50951E-03   -0.29437E-03   384   0.250E-01    0.777E-02
DAV:   4    -0.105062681862E+03    0.87441E-04   -0.51603E-04   384   0.979E-02    0.445E-02
DAV:   5    -0.105062661013E+03    0.20849E-04   -0.11535E-04   384   0.391E-02    0.167E-02
DAV:   6    -0.105062668289E+03   -0.72755E-05   -0.23807E-05   384   0.217E-02
  38 F= -.10559994E+03 E0= -.10559994E+03  d E =-.197016E-11  mag=     0.0000
       N       E                     dE             d eps       ncg     rms          rms(c)
DAV:   1    -0.105070735967E+03   -0.80750E-02   -0.27324E+00   192   0.361E+00    0.411E-01
DAV:   2    -0.105063959507E+03    0.67765E-02   -0.38517E-02   288   0.748E-01    0.190E-01
DAV:   3    -0.105063069312E+03    0.89020E-03   -0.31958E-03   384   0.234E-01    0.101E-01
DAV:   4    -0.105062703663E+03    0.36565E-03   -0.56776E-04   384   0.848E-02    0.479E-02
DAV:   5    -0.105062608129E+03    0.95534E-04   -0.15734E-04   384   0.424E-02    0.127E-02
DAV:   6    -0.105062619878E+03   -0.11749E-04   -0.39378E-05   384   0.273E-02    0.906E-03
DAV:   7    -0.105062665558E+03   -0.45680E-04   -0.73161E-06   192   0.961E-03    0.447E-03
DAV:   8    -0.105062717936E+03   -0.52378E-04   -0.43319E-06   384   0.677E-03    0.260E-03
DAV:   9    -0.105062802241E+03   -0.84304E-04   -0.69640E-06   192   0.870E-03    0.170E-03
DAV:  10    -0.105062847588E+03   -0.45348E-04   -0.32469E-06   288   0.537E-03    0.103E-03
DAV:  11    -0.105062879981E+03   -0.32393E-04   -0.97851E-07   384   0.274E-03    0.563E-04
DAV:  12    -0.105062899750E+03   -0.19769E-04   -0.35609E-07   288   0.170E-03    0.341E-04
DAV:  13    -0.105062911428E+03   -0.11678E-04   -0.96532E-08   384   0.117E-03    0.207E-04
DAV:  14    -0.105062917628E+03   -0.62004E-05    0.87228E-08   384   0.608E-04
  39 F= -.10560019E+03 E0= -.10560019E+03  d E =-.330514E-24  mag=     0.0000
       N       E                     dE             d eps       ncg     rms          rms(c)
DAV:   1    -0.105066657765E+03   -0.37463E-02   -0.13666E+00   192   0.256E+00    0.290E-01
DAV:   2    -0.105063031167E+03    0.36266E-02   -0.18256E-02   288   0.594E-01    0.134E-01
DAV:   3    -0.105062551886E+03    0.47928E-03   -0.22812E-03   384   0.212E-01    0.732E-02
DAV:   4    -0.105062376987E+03    0.17490E-03   -0.42490E-04   384   0.977E-02    0.318E-02
DAV:   5    -0.105062307530E+03    0.69457E-04   -0.11746E-04   384   0.470E-02    0.106E-02
DAV:   6    -0.105062320851E+03   -0.13321E-04   -0.32193E-05   384   0.283E-02    0.748E-03
DAV:   7    -0.105062348929E+03   -0.28078E-04   -0.34750E-06   384   0.761E-03    0.469E-03
DAV:   8    -0.105062411762E+03   -0.62833E-04   -0.59907E-06   384   0.835E-03    0.242E-03
DAV:   9    -0.105062458385E+03   -0.46623E-04   -0.20546E-06   384   0.538E-03    0.152E-03
DAV:  10    -0.105062520905E+03   -0.62521E-04   -0.42724E-06   288   0.700E-03    0.842E-04
DAV:  11    -0.105062547867E+03   -0.26962E-04   -0.93951E-07   384   0.307E-03    0.723E-04
DAV:  12    -0.105062572208E+03   -0.24340E-04   -0.61157E-07   288   0.216E-03    0.294E-04
DAV:  13    -0.105062583224E+03   -0.11017E-04   -0.96209E-08   384   0.122E-03    0.219E-04
DAV:  14    -0.105062589087E+03   -0.58634E-05    0.94482E-08   384   0.583E-04
  40 F= -.10559986E+03 E0= -.10559986E+03  d E =-.328815E-11  mag=    -0.0000
       N       E                     dE             d eps       ncg     rms          rms(c)
DAV:   1    -0.105071224809E+03   -0.86416E-02   -0.27328E+00   192   0.359E+00    0.411E-01
DAV:   2    -0.105064110545E+03    0.71143E-02   -0.38640E-02   288   0.737E-01    0.190E-01
DAV:   3    -0.105063104687E+03    0.10059E-02   -0.31163E-03   384   0.223E-01    0.101E-01
DAV:   4    -0.105062730649E+03    0.37404E-03   -0.55773E-04   384   0.828E-02    0.482E-02
DAV:   5    -0.105062649535E+03    0.81114E-04   -0.15974E-04   384   0.425E-02    0.128E-02
DAV:   6    -0.105062683112E+03   -0.33577E-04   -0.38827E-05   384   0.261E-02    0.936E-03
DAV:   7    -0.105062769134E+03   -0.86022E-04   -0.11299E-05   192   0.113E-02    0.467E-03
DAV:   8    -0.105062846940E+03   -0.77806E-04   -0.55296E-06   288   0.754E-03    0.287E-03
DAV:   9    -0.105062972416E+03   -0.12548E-03   -0.10849E-05   288   0.101E-02    0.199E-03
DAV:  10    -0.105063031793E+03   -0.59377E-04   -0.35731E-06   384   0.560E-03    0.111E-03
DAV:  11    -0.105063079254E+03   -0.47461E-04   -0.16682E-06   384   0.332E-03    0.562E-04
DAV:  12    -0.105063102407E+03   -0.23153E-04   -0.44002E-07   384   0.179E-03    0.361E-04
DAV:  13    -0.105063115167E+03   -0.12759E-04   -0.67088E-08   384   0.109E-03    0.217E-04
DAV:  14    -0.105063123567E+03   -0.83998E-05    0.61554E-08   384   0.735E-04
  41 F= -.10560039E+03 E0= -.10560039E+03  d E =-.372888E-11  mag=    -0.0000
       N       E                     dE             d eps       ncg     rms          rms(c)
DAV:   1    -0.105067088928E+03   -0.39738E-02   -0.13665E+00   192   0.257E+00    0.290E-01
DAV:   2    -0.105063459330E+03    0.36296E-02   -0.18237E-02   288   0.607E-01    0.133E-01
DAV:   3    -0.105062986010E+03    0.47332E-03   -0.23099E-03   384   0.215E-01    0.736E-02
DAV:   4    -0.105062814240E+03    0.17177E-03   -0.42504E-04   384   0.981E-02    0.324E-02
DAV:   5    -0.105062741935E+03    0.72304E-04   -0.12212E-04   384   0.473E-02    0.111E-02
DAV:   6    -0.105062753722E+03   -0.11787E-04   -0.34103E-05   384   0.296E-02    0.749E-03
DAV:   7    -0.105062781168E+03   -0.27446E-04   -0.36285E-06   384   0.782E-03    0.476E-03
DAV:   8    -0.105062843972E+03   -0.62804E-04   -0.61083E-06   384   0.841E-03    0.241E-03
DAV:   9    -0.105062891588E+03   -0.47615E-04   -0.21393E-06   384   0.543E-03    0.153E-03
DAV:  10    -0.105062953932E+03   -0.62345E-04   -0.42004E-06   288   0.702E-03    0.852E-04
DAV:  11    -0.105062982918E+03   -0.28986E-04   -0.10539E-06   384   0.315E-03    0.732E-04
DAV:  12    -0.105063008283E+03   -0.25365E-04   -0.65304E-07   288   0.216E-03    0.299E-04
DAV:  13    -0.105063020143E+03   -0.11859E-04   -0.13483E-07   384   0.126E-03    0.224E-04
DAV:  14    -0.105063026448E+03   -0.63049E-05    0.85431E-08   384   0.603E-04
  42 F= -.10560030E+03 E0= -.10560030E+03  d E =-.323212E-23  mag=     0.0000
       N       E                     dE             d eps       ncg     rms          rms(c)
DAV:   1    -0.105070841040E+03   -0.78209E-02   -0.27305E+00   192   0.359E+00    0.409E-01
DAV:   2    -0.105063735211E+03    0.71058E-02   -0.38544E-02   288   0.745E-01    0.190E-01
DAV:   3    -0.105062760506E+03    0.97471E-03   -0.31199E-03   384   0.233E-01    0.101E-01
DAV:   4    -0.105062383949E+03    0.37656E-03   -0.56357E-04   384   0.842E-02    0.475E-02
DAV:   5    -0.105062304112E+03    0.79837E-04   -0.15604E-04   384   0.423E-02    0.127E-02
DAV:   6    -0.105062336410E+03   -0.32298E-04   -0.39779E-05   384   0.268E-02    0.937E-03
DAV:   7    -0.105062419277E+03   -0.82867E-04   -0.11204E-05   384   0.113E-02    0.460E-03
DAV:   8    -0.105062496371E+03   -0.77094E-04   -0.52576E-06   384   0.754E-03    0.287E-03
DAV:   9    -0.105062621497E+03   -0.12513E-03   -0.10560E-05   288   0.103E-02    0.183E-03
DAV:  10    -0.105062682284E+03   -0.60787E-04   -0.34825E-06   384   0.561E-03    0.113E-03
DAV:  11    -0.105062732380E+03   -0.50096E-04   -0.16807E-06   384   0.335E-03    0.596E-04
DAV:  12    -0.105062754182E+03   -0.21802E-04   -0.28402E-07   384   0.156E-03    0.345E-04
DAV:  13    -0.105062768005E+03   -0.13823E-04   -0.70093E-08   384   0.107E-03    0.223E-04
DAV:  14    -0.105062777361E+03   -0.93564E-05    0.49298E-08   384   0.759E-04
  43 F= -.10560005E+03 E0= -.10560005E+03  d E =-.510212E-85  mag=    -0.0000
       N       E                     dE             d eps       ncg     rms          rms(c)
DAV:   1    -0.105068487687E+03   -0.57197E-02   -0.11321E+00   192   0.349E+00    0.250E-01
DAV:   2    -0.105066756898E+03    0.17308E-02   -0.11431E-02   288   0.422E-01    0.126E-01
DAV:   3    -0.105066514553E+03    0.24235E-03   -0.10254E-03   384   0.141E-01    0.582E-02
DAV:   4    -0.105066444077E+03    0.70477E-04   -0.17372E-04   384   0.535E-02    0.248E-02
DAV:   5    -0.105066430009E+03    0.14067E-04   -0.41776E-05   384   0.234E-02    0.702E-03
DAV:   6    -0.105066439968E+03   -0.99585E-05   -0.11618E-05   384   0.169E-02
  44 F= -.10560371E+03 E0= -.10560371E+03  d E =-.149255E-14  mag=     0.0000
       N       E                     dE             d eps       ncg     rms          rms(c)
DAV:   1    -0.105066049850E+03    0.38016E-03   -0.18017E+00   192   0.553E+00    0.285E-01
DAV:   2    -0.105066031730E+03    0.18120E-04   -0.38204E-03   384   0.272E-01    0.167E-01
DAV:   3    -0.105066195521E+03   -0.16379E-03   -0.58597E-04   288   0.821E-02    0.204E-02
DAV:   4    -0.105066198723E+03   -0.32016E-05   -0.34315E-05   384   0.225E-02
  45 F= -.10560347E+03 E0= -.10560347E+03  d E =-.815273E-14  mag=     0.0000
       N       E                     dE             d eps       ncg     rms          rms(c)
DAV:   1    -0.105066359677E+03   -0.16416E-03   -0.89993E-01   192   0.398E+00    0.201E-01
DAV:   2    -0.105066344398E+03    0.15278E-04   -0.19966E-03   384   0.200E-01    0.118E-01
DAV:   3    -0.105066453971E+03   -0.10957E-03   -0.30162E-04   288   0.598E-02    0.160E-02
DAV:   4    -0.105066455341E+03   -0.13701E-05   -0.22556E-05   384   0.181E-02
  46 F= -.10560373E+03 E0= -.10560373E+03  d E =-.131718E-13  mag=     0.0000
       N       E                     dE             d eps       ncg     rms          rms(c)
DAV:   1    -0.105066272962E+03    0.18101E-03   -0.18003E+00   192   0.559E+00    0.285E-01
DAV:   2    -0.105066241409E+03    0.31553E-04   -0.37972E-03   384   0.275E-01    0.166E-01
DAV:   3    -0.105066377394E+03   -0.13598E-03   -0.58760E-04   288   0.824E-02    0.202E-02
DAV:   4    -0.105066367259E+03    0.10135E-04   -0.32668E-05   384   0.222E-02    0.974E-03
DAV:   5    -0.105066367308E+03   -0.48609E-07   -0.10415E-05   384   0.106E-02
  47 F= -.10560364E+03 E0= -.10560364E+03  d E =-.629313E-14  mag=    -0.0000
       N       E                     dE             d eps       ncg     rms          rms(c)
DAV:   1    -0.105056585168E+03    0.97821E-02   -0.10689E+00   192   0.442E+00    0.392E-01
DAV:   2    -0.105055451595E+03    0.11336E-02   -0.60894E-03   288   0.309E-01    0.283E-01
DAV:   3    -0.105054944695E+03    0.50690E-03   -0.17076E-03   384   0.146E-01    0.706E-02
DAV:   4    -0.105054811269E+03    0.13343E-03   -0.46284E-04   384   0.761E-02    0.333E-02
DAV:   5    -0.105054803522E+03    0.77468E-05   -0.75844E-05   384   0.324E-02
  48 F= -.10559169E+03 E0= -.10559169E+03  d E =-.377441E-27  mag=     0.0000
       N       E                     dE             d eps       ncg     rms          rms(c)
DAV:   1    -0.105061179063E+03   -0.63678E-02   -0.24219E+00   192   0.532E+00    0.724E-01
DAV:   2    -0.105056779867E+03    0.43992E-02   -0.16819E-02   288   0.506E-01    0.539E-01
DAV:   3    -0.105054866081E+03    0.19138E-02   -0.48329E-03   384   0.235E-01    0.164E-01
DAV:   4    -0.105054456013E+03    0.41007E-03   -0.18568E-03   384   0.151E-01    0.769E-02
DAV:   5    -0.105054485628E+03   -0.29616E-04   -0.30515E-04   384   0.592E-02    0.251E-02
DAV:   6    -0.105054578367E+03   -0.92739E-04   -0.50822E-05   384   0.240E-02    0.153E-02
DAV:   7    -0.105054674088E+03   -0.95720E-04   -0.18181E-05   384   0.157E-02    0.712E-03
DAV:   8    -0.105054790678E+03   -0.11659E-03   -0.10879E-05   384   0.956E-03    0.357E-03
DAV:   9    -0.105054929331E+03   -0.13865E-03   -0.16707E-05   192   0.115E-02    0.230E-03
DAV:  10    -0.105055011115E+03   -0.81783E-04   -0.67139E-06   384   0.663E-03    0.117E-03
DAV:  11    -0.105055070657E+03   -0.59542E-04   -0.39427E-06   384   0.486E-03    0.664E-04
DAV:  12    -0.105055095733E+03   -0.25076E-04   -0.63239E-07   384   0.204E-03    0.448E-04
DAV:  13    -0.105055118161E+03   -0.22428E-04   -0.46032E-07   384   0.173E-03    0.246E-04
DAV:  14    -0.105055127219E+03   -0.90576E-05   -0.37694E-08   384   0.841E-04
  49 F= -.10559279E+03 E0= -.10559279E+03  d E =-.622662E-25  mag=    -0.0000
       N       E                     dE             d eps       ncg     rms          rms(c)
DAV:   1    -0.105068154651E+03   -0.13036E-01   -0.10574E+00   192   0.435E+00    0.381E-01
DAV:   2    -0.105067044152E+03    0.11105E-02   -0.64183E-03   288   0.383E-01    0.289E-01
DAV:   3    -0.105066588363E+03    0.45579E-03   -0.11861E-03   384   0.137E-01    0.899E-02
DAV:   4    -0.105066442118E+03    0.14625E-03   -0.48990E-04   384   0.838E-02    0.375E-02
DAV:   5    -0.105066434699E+03    0.74194E-05   -0.65824E-05   384   0.303E-02
  50 F= -.10560371E+03 E0= -.10560371E+03  d E =-.415091E-14  mag=    -0.0000
       N       E                     dE             d eps       ncg     rms          rms(c)
DAV:   1    -0.105065759528E+03    0.68259E-03   -0.18020E+00   192   0.564E+00    0.286E-01
DAV:   2    -0.105065751872E+03    0.76564E-05   -0.39275E-03   384   0.285E-01    0.167E-01
DAV:   3    -0.105065942732E+03   -0.19086E-03   -0.60156E-04   288   0.850E-02    0.246E-02
DAV:   4    -0.105065959346E+03   -0.16614E-04   -0.44323E-05   384   0.254E-02    0.126E-02
DAV:   5    -0.105065987259E+03   -0.27913E-04   -0.16802E-05   384   0.133E-02    0.576E-03
DAV:   6    -0.105066015322E+03   -0.28063E-04   -0.31391E-06   384   0.682E-03    0.211E-03
DAV:   7    -0.105066039422E+03   -0.24100E-04   -0.50077E-07   384   0.286E-03    0.141E-03
DAV:   8    -0.105066078971E+03   -0.39549E-04   -0.10369E-06   384   0.326E-03    0.779E-04
DAV:   9    -0.105066108536E+03   -0.29565E-04   -0.71967E-07   384   0.272E-03    0.520E-04
DAV:  10    -0.105066132589E+03   -0.24053E-04   -0.59553E-07   384   0.223E-03    0.288E-04
DAV:  11    -0.105066143129E+03   -0.10540E-04   -0.54500E-08   384   0.119E-03    0.188E-04
DAV:  12    -0.105066150672E+03   -0.75436E-05    0.59511E-08   384   0.805E-04
  51 F= -.10560342E+03 E0= -.10560342E+03  d E =-.128896E-14  mag=     0.0000
       N       E                     dE             d eps       ncg     rms          rms(c)
DAV:   1    -0.105056551854E+03    0.95913E-02   -0.10696E+00   192   0.442E+00    0.393E-01
DAV:   2    -0.105055454247E+03    0.10976E-02   -0.62907E-03   288   0.317E-01    0.284E-01
DAV:   3    -0.105054876513E+03    0.57773E-03   -0.16669E-03   384   0.142E-01    0.700E-02
DAV:   4    -0.105054759687E+03    0.11683E-03   -0.46330E-04   384   0.755E-02    0.354E-02
DAV:   5    -0.105054752211E+03    0.74757E-05   -0.73992E-05   384   0.312E-02
  52 F= -.10559163E+03 E0= -.10559163E+03  d E =-.694573E-23  mag=     0.0000
       N       E                     dE             d eps       ncg     rms          rms(c)
DAV:   1    -0.105061150373E+03   -0.63907E-02   -0.24237E+00   192   0.518E+00    0.726E-01
DAV:   2    -0.105056888256E+03    0.42621E-02   -0.16765E-02   288   0.496E-01    0.542E-01
DAV:   3    -0.105054876628E+03    0.20116E-02   -0.46952E-03   384   0.231E-01    0.170E-01
DAV:   4    -0.105054400262E+03    0.47637E-03   -0.18914E-03   384   0.153E-01    0.778E-02
DAV:   5    -0.105054433742E+03   -0.33479E-04   -0.31657E-04   384   0.601E-02    0.250E-02
DAV:   6    -0.105054534159E+03   -0.10042E-03   -0.51101E-05   384   0.243E-02    0.151E-02
DAV:   7    -0.105054633315E+03   -0.99156E-04   -0.17894E-05   288   0.157E-02    0.708E-03
DAV:   8    -0.105054753056E+03   -0.11974E-03   -0.11365E-05   288   0.985E-03    0.362E-03
DAV:   9    -0.105054894472E+03   -0.14142E-03   -0.17349E-05   288   0.115E-02    0.226E-03
DAV:  10    -0.105054975277E+03   -0.80805E-04   -0.59584E-06   384   0.644E-03    0.117E-03
DAV:  11    -0.105055034332E+03   -0.59055E-04   -0.41403E-06   288   0.510E-03    0.652E-04
DAV:  12    -0.105055062918E+03   -0.28587E-04   -0.91818E-07   384   0.261E-03    0.417E-04
DAV:  13    -0.105055080969E+03   -0.18051E-04   -0.28573E-07   384   0.168E-03    0.237E-04
DAV:  14    -0.105055089773E+03   -0.88037E-05   -0.73118E-09   384   0.984E-04
  53 F= -.10559275E+03 E0= -.10559275E+03  d E =-.838982E-28  mag=    -0.0000
       N       E                     dE             d eps       ncg     rms          rms(c)
DAV:   1    -0.105067754146E+03   -0.12673E-01   -0.10587E+00   192   0.342E+00    0.377E-01
DAV:   2    -0.105066550042E+03    0.12041E-02   -0.52067E-03   288   0.324E-01    0.289E-01
DAV:   3    -0.105066051567E+03    0.49847E-03   -0.11757E-03   384   0.126E-01    0.920E-02
DAV:   4    -0.105065910448E+03    0.14112E-03   -0.48891E-04   384   0.823E-02    0.375E-02
DAV:   5    -0.105065905520E+03    0.49278E-05   -0.79458E-05   384   0.323E-02
  54 F= -.10560318E+03 E0= -.10560318E+03  d E =-.112843E-12  mag=    -0.0000
       N       E                     dE             d eps       ncg     rms          rms(c)
DAV:   1    -0.105066310667E+03   -0.40022E-03   -0.18024E+00   192   0.538E+00    0.285E-01
DAV:   2    -0.105066259761E+03    0.50905E-04   -0.37383E-03   384   0.262E-01    0.167E-01
DAV:   3    -0.105066486310E+03   -0.22655E-03   -0.60044E-04   288   0.820E-02    0.216E-02
DAV:   4    -0.105066501684E+03   -0.15374E-04   -0.38552E-05   384   0.239E-02    0.114E-02
DAV:   5    -0.105066531239E+03   -0.29555E-04   -0.14703E-05   288   0.123E-02    0.524E-03
DAV:   6    -0.105066555468E+03   -0.24228E-04   -0.23023E-06   384   0.575E-03    0.204E-03
DAV:   7    -0.105066580424E+03   -0.24956E-04   -0.52346E-07   384   0.273E-03    0.135E-03
DAV:   8    -0.105066617720E+03   -0.37296E-04   -0.98686E-07   384   0.313E-03    0.733E-04
DAV:   9    -0.105066643315E+03   -0.25595E-04   -0.54784E-07   384   0.244E-03    0.506E-04
DAV:  10    -0.105066665366E+03   -0.22051E-04   -0.49430E-07   384   0.203E-03    0.279E-04
DAV:  11    -0.105066675642E+03   -0.10276E-04   -0.40091E-08   384   0.110E-03    0.178E-04
DAV:  12    -0.105066683066E+03   -0.74241E-05    0.88745E-08   384   0.739E-04
  55 F= -.10560396E+03 E0= -.10560396E+03  d E =-.189504E-14  mag=    -0.0000
       N       E                     dE             d eps       ncg     rms          rms(c)
DAV:   1    -0.105056358408E+03    0.10317E-01   -0.10533E+00   192   0.465E+00    0.386E-01
DAV:   2    -0.105055367022E+03    0.99139E-03   -0.77277E-03   288   0.405E-01    0.290E-01
DAV:   3    -0.105054882445E+03    0.48458E-03   -0.11278E-03   384   0.121E-01    0.106E-01
DAV:   4    -0.105054726891E+03    0.15555E-03   -0.50308E-04   384   0.820E-02    0.348E-02
DAV:   5    -0.105054749822E+03   -0.22932E-04   -0.53863E-05   384   0.264E-02    0.130E-02
DAV:   6    -0.105054796392E+03   -0.46569E-04   -0.16244E-05   384   0.127E-02    0.110E-02
DAV:   7    -0.105054852210E+03   -0.55818E-04   -0.95546E-06   288   0.113E-02    0.358E-03
DAV:   8    -0.105054912797E+03   -0.60587E-04   -0.38918E-06   384   0.587E-03    0.220E-03
DAV:   9    -0.105054994395E+03   -0.81598E-04   -0.83009E-06   288   0.768E-03    0.125E-03
DAV:  10    -0.105055037519E+03   -0.43124E-04   -0.24358E-06   384   0.418E-03    0.726E-04
DAV:  11    -0.105055066068E+03   -0.28550E-04   -0.13732E-06   288   0.292E-03    0.395E-04
DAV:  12    -0.105055077878E+03   -0.11810E-04   -0.12585E-07   384   0.124E-03    0.261E-04
DAV:  13    -0.105055088196E+03   -0.10318E-04   -0.59285E-08   288   0.107E-03    0.143E-04
DAV:  14    -0.105055092139E+03   -0.39430E-05    0.11688E-07   384   0.474E-04
  56 F= -.10559275E+03 E0= -.10559275E+03  d E =-.253872E-26  mag=     0.0000
       N       E                     dE             d eps       ncg     rms          rms(c)
DAV:   1    -0.105061723135E+03   -0.66349E-02   -0.24492E+00   192   0.504E+00    0.736E-01
DAV:   2    -0.105056927315E+03    0.47958E-02   -0.15218E-02   288   0.511E-01    0.540E-01
DAV:   3    -0.105054790046E+03    0.21373E-02   -0.55703E-03   384   0.253E-01    0.148E-01
DAV:   4    -0.105054279344E+03    0.51070E-03   -0.21157E-03   384   0.155E-01    0.764E-02
DAV:   5    -0.105054240542E+03    0.38802E-04   -0.28397E-04   384   0.595E-02    0.268E-02
DAV:   6    -0.105054291932E+03   -0.51391E-04   -0.47562E-05   384   0.265E-02    0.148E-02
DAV:   7    -0.105054390152E+03   -0.98219E-04   -0.15161E-05   288   0.164E-02    0.774E-03
DAV:   8    -0.105054560595E+03   -0.17044E-03   -0.12367E-05   288   0.112E-02    0.411E-03
DAV:   9    -0.105054759653E+03   -0.19906E-03   -0.15013E-05   384   0.121E-02    0.252E-03
DAV:  10    -0.105054893830E+03   -0.13418E-03   -0.58595E-06   384   0.669E-03    0.130E-03
DAV:  11    -0.105054978868E+03   -0.85039E-04   -0.27919E-06   384   0.429E-03    0.765E-04
DAV:  12    -0.105055029398E+03   -0.50530E-04   -0.99262E-07   384   0.253E-03    0.454E-04
DAV:  13    -0.105055061631E+03   -0.32233E-04   -0.40852E-07   384   0.174E-03    0.274E-04
DAV:  14    -0.105055072986E+03   -0.11355E-04    0.34049E-08   384   0.784E-04    0.161E-04
DAV:  15    -0.105055080007E+03   -0.70206E-05    0.10884E-07   384   0.491E-04
  57 F= -.10559196E+03 E0= -.10559196E+03  d E =-.525590E-25  mag=     0.0000
       N       E                     dE             d eps       ncg     rms          rms(c)
DAV:   1    -0.105068203643E+03   -0.13131E-01   -0.10629E+00   192   0.360E+00    0.387E-01
DAV:   2    -0.105066867429E+03    0.13362E-02   -0.50779E-03   288   0.319E-01    0.288E-01
DAV:   3    -0.105066304720E+03    0.56271E-03   -0.13328E-03   384   0.147E-01    0.826E-02
DAV:   4    -0.105066193776E+03    0.11094E-03   -0.45903E-04   384   0.819E-02    0.393E-02
DAV:   5    -0.105066220509E+03   -0.26734E-04   -0.80657E-05   384   0.334E-02    0.134E-02
DAV:   6    -0.105066271820E+03   -0.51311E-04   -0.16575E-05   384   0.152E-02    0.842E-03
DAV:   7    -0.105066322476E+03   -0.50656E-04   -0.56248E-06   192   0.109E-02    0.379E-03
DAV:   8    -0.105066389082E+03   -0.66607E-04   -0.51838E-06   288   0.761E-03    0.223E-03
DAV:   9    -0.105066464319E+03   -0.75237E-04   -0.70332E-06   288   0.817E-03    0.124E-03
DAV:  10    -0.105066505037E+03   -0.40718E-04   -0.24120E-06   384   0.493E-03    0.689E-04
DAV:  11    -0.105066531757E+03   -0.26720E-04   -0.11318E-06   288   0.304E-03    0.393E-04
DAV:  12    -0.105066545938E+03   -0.14181E-04   -0.28698E-07   384   0.164E-03    0.268E-04
DAV:  13    -0.105066555061E+03   -0.91229E-05    0.35135E-09   288   0.955E-04
  58 F= -.10560383E+03 E0= -.10560383E+03  d E =-.933147E-14  mag=     0.0000
       N       E                     dE             d eps       ncg     rms          rms(c)
DAV:   1    -0.105066213466E+03    0.33247E-03   -0.18028E+00   192   0.569E+00    0.286E-01
DAV:   2    -0.105066181693E+03    0.31772E-04   -0.39112E-03   384   0.284E-01    0.167E-01
DAV:   3    -0.105066298905E+03   -0.11721E-03   -0.58089E-04   288   0.851E-02    0.199E-02
DAV:   4    -0.105066286781E+03    0.12124E-04   -0.33053E-05   384   0.226E-02    0.926E-03
DAV:   5    -0.105066287704E+03   -0.92256E-06   -0.10509E-05   384   0.109E-02
  59 F= -.10560356E+03 E0= -.10560356E+03  d E =-.170798E-13  mag=     0.0000
       N       E                     dE             d eps       ncg     rms          rms(c)
DAV:   1    -0.105066197135E+03    0.89647E-04   -0.90239E-01   192   0.405E+00    0.202E-01
DAV:   2    -0.105066158860E+03    0.38274E-04   -0.18529E-03   384   0.203E-01    0.118E-01
DAV:   3    -0.105066269749E+03   -0.11089E-03   -0.30095E-04   288   0.609E-02    0.147E-02
DAV:   4    -0.105066266227E+03    0.35218E-05   -0.18620E-05   384   0.174E-02
  60 F= -.10560354E+03 E0= -.10560354E+03  d E =-.318050E-14  mag=     0.0000
       N       E                     dE             d eps       ncg     rms          rms(c)
DAV:   1    -0.105066478509E+03   -0.20876E-03   -0.18010E+00   192   0.554E+00    0.285E-01
DAV:   2    -0.105066448635E+03    0.29874E-04   -0.40073E-03   384   0.283E-01    0.167E-01
DAV:   3    -0.105066602286E+03   -0.15365E-03   -0.59276E-04   288   0.843E-02    0.209E-02
DAV:   4    -0.105066590072E+03    0.12214E-04   -0.33619E-05   384   0.228E-02    0.107E-02
DAV:   5    -0.105066586208E+03    0.38638E-05   -0.12310E-05   288   0.114E-02
  61 F= -.10560386E+03 E0= -.10560386E+03  d E =-.644258E-15  mag=     0.0000
       N       E                     dE             d eps       ncg     rms          rms(c)
DAV:   1    -0.105056391860E+03    0.10198E-01   -0.10621E+00   192   0.446E+00    0.391E-01
DAV:   2    -0.105055576216E+03    0.81564E-03   -0.83319E-03   288   0.400E-01    0.290E-01
DAV:   3    -0.105055061493E+03    0.51472E-03   -0.12236E-03   384   0.127E-01    0.102E-01
DAV:   4    -0.105054885561E+03    0.17593E-03   -0.53300E-04   384   0.841E-02    0.379E-02
DAV:   5    -0.105054872339E+03    0.13222E-04   -0.66756E-05   384   0.294E-02    0.142E-02
DAV:   6    -0.105054885530E+03   -0.13191E-04   -0.14696E-05   384   0.130E-02    0.107E-02
DAV:   7    -0.105054916109E+03   -0.30579E-04   -0.74911E-06   384   0.114E-02    0.378E-03
DAV:   8    -0.105054965959E+03   -0.49851E-04   -0.25063E-06   192   0.531E-03    0.218E-03
DAV:   9    -0.105055043374E+03   -0.77415E-04   -0.54777E-06   288   0.686E-03    0.123E-03
DAV:  10    -0.105055100189E+03   -0.56815E-04   -0.22400E-06   384   0.398E-03    0.648E-04
DAV:  11    -0.105055126147E+03   -0.25958E-04   -0.46929E-07   384   0.192E-03    0.393E-04
DAV:  12    -0.105055144646E+03   -0.18499E-04   -0.17671E-07   384   0.129E-03    0.241E-04
DAV:  13    -0.105055156926E+03   -0.12281E-04   -0.77312E-09   384   0.929E-04    0.129E-04
DAV:  14    -0.105055162958E+03   -0.60318E-05    0.11462E-07   384   0.529E-04
  62 F= -.10559204E+03 E0= -.10559204E+03  d E =-.810215E-25  mag=    -0.0000
       N       E                     dE             d eps       ncg     rms          rms(c)
DAV:   1    -0.105061697888E+03   -0.65410E-02   -0.24230E+00   192   0.530E+00    0.728E-01
DAV:   2    -0.105056692075E+03    0.50058E-02   -0.15883E-02   288   0.513E-01    0.538E-01
DAV:   3    -0.105054493256E+03    0.21988E-02   -0.47314E-03   384   0.239E-01    0.160E-01
DAV:   4    -0.105054093798E+03    0.39946E-03   -0.17275E-03   384   0.148E-01    0.767E-02
DAV:   5    -0.105054170850E+03   -0.77051E-04   -0.29256E-04   384   0.583E-02    0.257E-02
DAV:   6    -0.105054333189E+03   -0.16234E-03   -0.57677E-05   384   0.261E-02    0.159E-02
DAV:   7    -0.105054484263E+03   -0.15107E-03   -0.22614E-05   192   0.175E-02    0.744E-03
DAV:   8    -0.105054662663E+03   -0.17840E-03   -0.17930E-05   288   0.121E-02    0.435E-03
DAV:   9    -0.105054873312E+03   -0.21065E-03   -0.26780E-05   288   0.142E-02    0.264E-03
DAV:  10    -0.105054978569E+03   -0.10526E-03   -0.72981E-06   384   0.735E-03    0.132E-03
DAV:  11    -0.105055049746E+03   -0.71177E-04   -0.41847E-06   288   0.522E-03    0.761E-04
DAV:  12    -0.105055083978E+03   -0.34231E-04   -0.95690E-07   384   0.256E-03    0.487E-04
DAV:  13    -0.105055110155E+03   -0.26177E-04   -0.46770E-07   288   0.182E-03    0.274E-04
DAV:  14    -0.105055118208E+03   -0.80536E-05    0.44623E-08   384   0.681E-04
  63 F= -.10559278E+03 E0= -.10559278E+03  d E =-.368967E-26  mag=    -0.0000
       N       E                     dE             d eps       ncg     rms          rms(c)
DAV:   1    -0.105067895621E+03   -0.12785E-01   -0.10570E+00   192   0.347E+00    0.376E-01
DAV:   2    -0.105066719709E+03    0.11759E-02   -0.52736E-03   288   0.331E-01    0.286E-01
DAV:   3    -0.105066237496E+03    0.48221E-03   -0.12059E-03   384   0.134E-01    0.876E-02
DAV:   4    -0.105066085164E+03    0.15233E-03   -0.46511E-04   384   0.812E-02    0.366E-02
DAV:   5    -0.105066081340E+03    0.38238E-05   -0.75632E-05   384   0.322E-02
  64 F= -.10560335E+03 E0= -.10560335E+03  d E =-.184144E-13  mag=    -0.0000
       N       E                     dE             d eps       ncg     rms          rms(c)
DAV:   1    -0.105066135575E+03   -0.50411E-04   -0.18012E+00   192   0.557E+00    0.285E-01
DAV:   2    -0.105066127303E+03    0.82725E-05   -0.37570E-03   384   0.281E-01    0.167E-01
DAV:   3    -0.105066318048E+03   -0.19075E-03   -0.60337E-04   288   0.853E-02    0.208E-02
DAV:   4    -0.105066332170E+03   -0.14122E-04   -0.41229E-05   384   0.258E-02    0.107E-02
DAV:   5    -0.105066361336E+03   -0.29165E-04   -0.12445E-05   288   0.115E-02    0.517E-03
DAV:   6    -0.105066383744E+03   -0.22409E-04   -0.20957E-06   384   0.518E-03    0.204E-03
DAV:   7    -0.105066406651E+03   -0.22907E-04   -0.48820E-07   384   0.288E-03    0.144E-03
DAV:   8    -0.105066441089E+03   -0.34437E-04   -0.84063E-07   288   0.291E-03    0.796E-04
DAV:   9    -0.105066467622E+03   -0.26533E-04   -0.60157E-07   384   0.256E-03    0.548E-04
DAV:  10    -0.105066490045E+03   -0.22424E-04   -0.49301E-07   288   0.205E-03    0.291E-04
DAV:  11    -0.105066501385E+03   -0.11339E-04   -0.82556E-08   384   0.123E-03    0.187E-04
DAV:  12    -0.105066508062E+03   -0.66778E-05    0.90623E-08   288   0.699E-04
  65 F= -.10560378E+03 E0= -.10560378E+03  d E =-.349952E-14  mag=    -0.0000
       N       E                     dE             d eps       ncg     rms          rms(c)
DAV:   1    -0.105066369017E+03    0.13237E-03   -0.90191E-01   192   0.414E+00    0.202E-01
DAV:   2    -0.105066316309E+03    0.52708E-04   -0.19098E-03   384   0.204E-01    0.118E-01
DAV:   3    -0.105066405338E+03   -0.89029E-04   -0.29834E-04   288   0.608E-02    0.147E-02
DAV:   4    -0.105066399203E+03    0.61350E-05   -0.18466E-05   384   0.173E-02
  66 F= -.10560367E+03 E0= -.10560367E+03  d E =-.380425E-15  mag=    -0.0000
       N       E                     dE             d eps       ncg     rms          rms(c)
DAV:   1    -0.105066348053E+03    0.57285E-04   -0.18002E+00   192   0.554E+00    0.286E-01
DAV:   2    -0.105066294715E+03    0.53338E-04   -0.38537E-03   384   0.272E-01    0.166E-01
DAV:   3    -0.105066453191E+03   -0.15848E-03   -0.58108E-04   288   0.823E-02    0.213E-02
DAV:   4    -0.105066443673E+03    0.95174E-05   -0.33366E-05   384   0.226E-02
  67 F= -.10560371E+03 E0= -.10560371E+03  d E =-.531078E-14  mag=    -0.0000
       N       E                     dE             d eps       ncg     rms          rms(c)
DAV:   1    -0.105066797666E+03   -0.34447E-03   -0.89963E-01   192   0.424E+00    0.201E-01
DAV:   2    -0.105066826841E+03   -0.29175E-04   -0.27668E-03   384   0.253E-01    0.118E-01
DAV:   3    -0.105066947482E+03   -0.12064E-03   -0.29656E-04   288   0.619E-02    0.169E-02
DAV:   4    -0.105066945790E+03    0.16913E-05   -0.22822E-05   384   0.183E-02
  68 F= -.10560422E+03 E0= -.10560422E+03  d E =-.327724E-14  mag=    -0.0000
       N       E                     dE             d eps       ncg     rms          rms(c)
DAV:   1    -0.105065817225E+03    0.11303E-02   -0.18007E+00   192   0.565E+00    0.285E-01
DAV:   2    -0.105065794355E+03    0.22869E-04   -0.40064E-03   384   0.284E-01    0.166E-01
DAV:   3    -0.105065925783E+03   -0.13143E-03   -0.59775E-04   288   0.839E-02    0.215E-02
DAV:   4    -0.105065914503E+03    0.11280E-04   -0.33935E-05   384   0.232E-02    0.111E-02
DAV:   5    -0.105065910489E+03    0.40145E-05   -0.13655E-05   384   0.120E-02
  69 F= -.10560318E+03 E0= -.10560318E+03  d E =-.259300E-14  mag=     0.0000
       N       E                     dE             d eps       ncg     rms          rms(c)
DAV:   1    -0.105056348979E+03    0.95655E-02   -0.10491E+00   192   0.438E+00    0.378E-01
DAV:   2    -0.105055223912E+03    0.11251E-02   -0.60304E-03   288   0.312E-01    0.288E-01
DAV:   3    -0.105054691989E+03    0.53192E-03   -0.12132E-03   384   0.119E-01    0.957E-02
DAV:   4    -0.105054549112E+03    0.14288E-03   -0.47253E-04   384   0.780E-02    0.342E-02
DAV:   5    -0.105054582150E+03   -0.33038E-04   -0.60074E-05   384   0.271E-02    0.127E-02
DAV:   6    -0.105054627135E+03   -0.44986E-04   -0.16881E-05   384   0.126E-02    0.105E-02
DAV:   7    -0.105054682880E+03   -0.55745E-04   -0.80774E-06   192   0.103E-02    0.353E-03
DAV:   8    -0.105054746258E+03   -0.63377E-04   -0.48232E-06   288   0.612E-03    0.221E-03
DAV:   9    -0.105054826675E+03   -0.80417E-04   -0.81584E-06   288   0.738E-03    0.123E-03
DAV:  10    -0.105054868589E+03   -0.41914E-04   -0.24053E-06   384   0.400E-03    0.689E-04
DAV:  11    -0.105054897673E+03   -0.29084E-04   -0.14655E-06   288   0.295E-03    0.384E-04
DAV:  12    -0.105054911640E+03   -0.13967E-04   -0.26840E-07   384   0.149E-03    0.246E-04
DAV:  13    -0.105054921947E+03   -0.10307E-04   -0.54035E-08   384   0.105E-03    0.134E-04
DAV:  14    -0.105054925587E+03   -0.36394E-05    0.13023E-07   384   0.451E-04
  70 F= -.10559259E+03 E0= -.10559259E+03  d E =-.614081E-28  mag=     0.0000
       N       E                     dE             d eps       ncg     rms          rms(c)
DAV:   1    -0.105061927709E+03   -0.70058E-02   -0.24491E+00   192   0.498E+00    0.735E-01
DAV:   2    -0.105057178805E+03    0.47489E-02   -0.15294E-02   288   0.514E-01    0.540E-01
DAV:   3    -0.105055008511E+03    0.21703E-02   -0.54012E-03   384   0.246E-01    0.150E-01
DAV:   4    -0.105054487565E+03    0.52095E-03   -0.20705E-03   384   0.154E-01    0.769E-02
DAV:   5    -0.105054448006E+03    0.39560E-04   -0.28931E-04   384   0.597E-02    0.266E-02
DAV:   6    -0.105054498593E+03   -0.50587E-04   -0.47441E-05   384   0.264E-02    0.148E-02
DAV:   7    -0.105054596664E+03   -0.98071E-04   -0.15101E-05   384   0.162E-02    0.777E-03
DAV:   8    -0.105054765977E+03   -0.16931E-03   -0.12167E-05   288   0.110E-02    0.412E-03
DAV:   9    -0.105054963118E+03   -0.19714E-03   -0.14909E-05   384   0.121E-02    0.254E-03
DAV:  10    -0.105055093366E+03   -0.13025E-03   -0.54249E-06   384   0.641E-03    0.133E-03
DAV:  11    -0.105055187556E+03   -0.94190E-04   -0.32337E-06   384   0.457E-03    0.767E-04
DAV:  12    -0.105055237496E+03   -0.49940E-04   -0.89327E-07   384   0.253E-03    0.469E-04
DAV:  13    -0.105055272920E+03   -0.35424E-04   -0.48844E-07   384   0.192E-03    0.266E-04
DAV:  14    -0.105055284739E+03   -0.11819E-04    0.26953E-08   384   0.810E-04    0.163E-04
DAV:  15    -0.105055293440E+03   -0.87015E-05    0.92268E-08   384   0.600E-04
  71 F= -.10559218E+03 E0= -.10559218E+03  d E =-.604362E-22  mag=     0.0000
       N       E                     dE             d eps       ncg     rms          rms(c)
DAV:   1    -0.105067713955E+03   -0.12429E-01   -0.10632E+00   192   0.354E+00    0.387E-01
DAV:   2    -0.105066388972E+03    0.13250E-02   -0.51160E-03   384   0.319E-01    0.288E-01
DAV:   3    -0.105065796231E+03    0.59274E-03   -0.12877E-03   384   0.142E-01    0.839E-02
DAV:   4    -0.105065691920E+03    0.10431E-03   -0.46533E-04   384   0.834E-02    0.393E-02
DAV:   5    -0.105065720280E+03   -0.28360E-04   -0.79581E-05   384   0.324E-02    0.135E-02
DAV:   6    -0.105065774161E+03   -0.53881E-04   -0.16599E-05   384   0.146E-02    0.864E-03
DAV:   7    -0.105065827066E+03   -0.52906E-04   -0.61583E-06   288   0.109E-02    0.382E-03
DAV:   8    -0.105065894510E+03   -0.67443E-04   -0.49307E-06   288   0.726E-03    0.215E-03
DAV:   9    -0.105065974097E+03   -0.79588E-04   -0.80366E-06   288   0.855E-03    0.121E-03
DAV:  10    -0.105066016190E+03   -0.42092E-04   -0.25395E-06   384   0.459E-03    0.675E-04
DAV:  11    -0.105066043156E+03   -0.26966E-04   -0.12130E-06   384   0.296E-03    0.385E-04
DAV:  12    -0.105066058115E+03   -0.14959E-04   -0.32572E-07   384   0.166E-03    0.250E-04
DAV:  13    -0.105066067246E+03   -0.91314E-05   -0.82803E-10   384   0.973E-04
  72 F= -.10560334E+03 E0= -.10560334E+03  d E =-.130404E-14  mag=    -0.0000
       N       E                     dE             d eps       ncg     rms          rms(c)
DAV:   1    -0.105066729769E+03   -0.67165E-03   -0.18032E+00   192   0.543E+00    0.287E-01
DAV:   2    -0.105066634735E+03    0.95034E-04   -0.37287E-03   384   0.272E-01    0.167E-01
DAV:   3    -0.105066789158E+03   -0.15442E-03   -0.57974E-04   288   0.826E-02    0.199E-02
DAV:   4    -0.105066777038E+03    0.12120E-04   -0.33769E-05   384   0.225E-02    0.914E-03
DAV:   5    -0.105066776996E+03    0.41634E-07   -0.10232E-05   384   0.105E-02
  73 F= -.10560405E+03 E0= -.10560405E+03  d E =-.512263E-14  mag=    -0.0000
       N       E                     dE             d eps       ncg     rms          rms(c)
DAV:   1    -0.105066294939E+03    0.48210E-03   -0.90203E-01   192   0.418E+00    0.202E-01
DAV:   2    -0.105066306823E+03   -0.11883E-04   -0.25402E-03   384   0.241E-01    0.119E-01
DAV:   3    -0.105066435923E+03   -0.12910E-03   -0.30347E-04   288   0.642E-02    0.154E-02
DAV:   4    -0.105066433536E+03    0.23868E-05   -0.21607E-05   384   0.194E-02
  74 F= -.10560370E+03 E0= -.10560370E+03  d E =-.637709E-14  mag=     0.0000
       N       E                     dE             d eps       ncg     rms          rms(c)
DAV:   1    -0.105066329656E+03    0.10627E-03   -0.17999E+00   192   0.547E+00    0.285E-01
DAV:   2    -0.105066306237E+03    0.23418E-04   -0.38929E-03   384   0.266E-01    0.166E-01
DAV:   3    -0.105066435267E+03   -0.12903E-03   -0.58566E-04   288   0.804E-02    0.213E-02
DAV:   4    -0.105066423710E+03    0.11557E-04   -0.32938E-05   384   0.219E-02    0.107E-02
DAV:   5    -0.105066420046E+03    0.36639E-05   -0.11210E-05   288   0.106E-02
  75 F= -.10560369E+03 E0= -.10560369E+03  d E =-.592250E-15  mag=     0.0000
       N       E                     dE             d eps       ncg     rms          rms(c)
DAV:   1    -0.105066349647E+03    0.74063E-04   -0.90173E-01   192   0.391E+00    0.202E-01
DAV:   2    -0.105066306667E+03    0.42981E-04   -0.17935E-03   384   0.189E-01    0.118E-01
DAV:   3    -0.105066402035E+03   -0.95369E-04   -0.29862E-04   288   0.597E-02    0.142E-02
DAV:   4    -0.105066396966E+03    0.50694E-05   -0.19048E-05   384   0.176E-02
  76 F= -.10560367E+03 E0= -.10560367E+03  d E =-.503881E-14  mag=     0.0000
       N       E                     dE             d eps       ncg     rms          rms(c)
DAV:   1    -0.105066381740E+03    0.20296E-04   -0.18003E+00   192   0.547E+00    0.286E-01
DAV:   2    -0.105066342981E+03    0.38759E-04   -0.36843E-03   384   0.260E-01    0.166E-01
DAV:   3    -0.105066475078E+03   -0.13210E-03   -0.58180E-04   288   0.810E-02    0.201E-02
DAV:   4    -0.105066461946E+03    0.13132E-04   -0.33023E-05   384   0.220E-02    0.954E-03
DAV:   5    -0.105066459068E+03    0.28783E-05   -0.10060E-05   288   0.103E-02
  77 F= -.10560373E+03 E0= -.10560373E+03  d E =-.935924E-14  mag=     0.0000
       N       E                     dE             d eps       ncg     rms          rms(c)
DAV:   1    -0.105057053211E+03    0.94087E-02   -0.10504E+00   192   0.419E+00    0.382E-01
DAV:   2    -0.105055831034E+03    0.12222E-02   -0.57459E-03   288   0.300E-01    0.284E-01
DAV:   3    -0.105055344044E+03    0.48699E-03   -0.13372E-03   384   0.125E-01    0.846E-02
DAV:   4    -0.105055218638E+03    0.12541E-03   -0.43993E-04   384   0.745E-02    0.334E-02
DAV:   5    -0.105055249981E+03   -0.31343E-04   -0.58937E-05   384   0.272E-02    0.125E-02
DAV:   6    -0.105055291520E+03   -0.41539E-04   -0.17129E-05   384   0.127E-02    0.104E-02
DAV:   7    -0.105055344044E+03   -0.52524E-04   -0.81562E-06   384   0.103E-02    0.361E-03
DAV:   8    -0.105055406469E+03   -0.62425E-04   -0.43619E-06   384   0.597E-03    0.212E-03
DAV:   9    -0.105055485167E+03   -0.78698E-04   -0.79493E-06   288   0.755E-03    0.119E-03
DAV:  10    -0.105055528404E+03   -0.43237E-04   -0.24374E-06   384   0.407E-03    0.667E-04
DAV:  11    -0.105055555203E+03   -0.26799E-04   -0.11732E-06   384   0.273E-03    0.394E-04
DAV:  12    -0.105055569697E+03   -0.14493E-04   -0.19831E-07   384   0.140E-03    0.237E-04
DAV:  13    -0.105055580437E+03   -0.10740E-04   -0.35807E-08   384   0.103E-03    0.137E-04
DAV:  14    -0.105055583508E+03   -0.30710E-05    0.14783E-07   384   0.352E-04
  78 F= -.10559325E+03 E0= -.10559325E+03  d E =-.994915E-26  mag=     0.0000
       N       E                     dE             d eps       ncg     rms          rms(c)
DAV:   1    -0.105061310926E+03   -0.57305E-02   -0.24476E+00   192   0.507E+00    0.740E-01
DAV:   2    -0.105056421543E+03    0.48894E-02   -0.15282E-02   288   0.502E-01    0.533E-01
DAV:   3    -0.105054316708E+03    0.21048E-02   -0.61313E-03   384   0.267E-01    0.132E-01
DAV:   4    -0.105053864235E+03    0.45247E-03   -0.20079E-03   384   0.147E-01    0.726E-02
DAV:   5    -0.105053826681E+03    0.37553E-04   -0.25993E-04   384   0.581E-02    0.268E-02
DAV:   6    -0.105053875881E+03   -0.49200E-04   -0.48351E-05   384   0.262E-02    0.149E-02
DAV:   7    -0.105053971754E+03   -0.95872E-04   -0.15509E-05   384   0.165E-02    0.791E-03
DAV:   8    -0.105054140822E+03   -0.16907E-03   -0.12228E-05   288   0.112E-02    0.409E-03
DAV:   9    -0.105054340752E+03   -0.19993E-03   -0.15471E-05   384   0.124E-02    0.263E-03
DAV:  10    -0.105054470660E+03   -0.12991E-03   -0.53319E-06   384   0.642E-03    0.136E-03
DAV:  11    -0.105054568305E+03   -0.97645E-04   -0.35008E-06   384   0.474E-03    0.791E-04
DAV:  12    -0.105054617720E+03   -0.49416E-04   -0.91468E-07   384   0.247E-03    0.479E-04
DAV:  13    -0.105054653873E+03   -0.36153E-04   -0.47903E-07   384   0.186E-03    0.263E-04
DAV:  14    -0.105054665493E+03   -0.11620E-04    0.53379E-08   384   0.786E-04    0.161E-04
DAV:  15    -0.105054674499E+03   -0.90060E-05    0.13474E-07   384   0.594E-04
  79 F= -.10559156E+03 E0= -.10559156E+03  d E =-.381537E-25  mag=    -0.0000
