       N       E                     dE             d eps       ncg     rms          rms(c)
DAV:   1     0.184297319581E+05    0.18430E+05   -0.77773E+05  6064   0.107E+03
DAV:   2     0.307740648058E+03   -0.18122E+05   -0.17377E+05  7568   0.280E+02
DAV:   3    -0.299077541805E+04   -0.32985E+04   -0.32791E+04  6784   0.124E+02
DAV:   4    -0.308802493750E+04   -0.97250E+02   -0.96817E+02  6832   0.245E+01
DAV:   5    -0.309023335594E+04   -0.22084E+01   -0.22048E+01  7376   0.336E+00    0.191E+02
DAV:   6    -0.149560380618E+04    0.15946E+04   -0.30966E+03  6448   0.448E+01    0.890E+01
DAV:   7    -0.163592687367E+04   -0.14032E+03   -0.28499E+02  6880   0.128E+01    0.570E+01
DAV:   8    -0.166306403536E+04   -0.27137E+02   -0.34295E+01  6880   0.545E+00    0.433E+01
DAV:   9    -0.181589106258E+04   -0.15283E+03   -0.28021E+01  6880   0.474E+00    0.349E+01
DAV:  10    -0.203811375904E+04   -0.22222E+03   -0.62103E+01  6960   0.584E+00    0.308E+01
DAV:  11    -0.218713633870E+04   -0.14902E+03   -0.67289E+01  6960   0.530E+00    0.277E+01
DAV:  12    -0.239917342674E+04   -0.21204E+03   -0.10576E+02  6800   0.729E+00    0.224E+01
DAV:  13    -0.269011874709E+04   -0.29095E+03   -0.21661E+02  6480   0.976E+00    0.153E+01
DAV:  14    -0.283505979859E+04   -0.14494E+03   -0.11558E+02  6720   0.631E+00    0.113E+01
DAV:  15    -0.287882586802E+04   -0.43766E+02   -0.21621E+01  6768   0.300E+00    0.896E+00
DAV:  16    -0.289672283245E+04   -0.17897E+02   -0.53429E+00  6640   0.170E+00    0.717E+00
DAV:  17    -0.290698426709E+04   -0.10261E+02   -0.23673E+00  6688   0.117E+00    0.583E+00
DAV:  18    -0.291321922787E+04   -0.62350E+01   -0.15036E+00  6624   0.910E-01    0.462E+00
DAV:  19    -0.291757517600E+04   -0.43559E+01   -0.11593E+00  6624   0.744E-01    0.335E+00
DAV:  20    -0.292216275153E+04   -0.45876E+01   -0.10770E+00  6528   0.646E-01    0.193E+00
DAV:  21    -0.292276997668E+04   -0.60723E+00   -0.28985E-01  6368   0.402E-01    0.120E+00
DAV:  22    -0.292413346144E+04   -0.13635E+01   -0.77008E-02  6576   0.311E-01    0.754E-01
DAV:  23    -0.292599610693E+04   -0.18626E+01   -0.38862E-02  6416   0.218E-01    0.517E-01
DAV:  24    -0.292760617151E+04   -0.16101E+01   -0.29723E-02  6688   0.166E-01    0.297E-01
DAV:  25    -0.292866015669E+04   -0.10540E+01   -0.16011E-02  6784   0.124E-01    0.175E-01
DAV:  26    -0.292901290614E+04   -0.35275E+00   -0.48404E-03  6880   0.759E-02    0.117E-01
DAV:  27    -0.292918149966E+04   -0.16859E+00   -0.27974E-03  6880   0.559E-02    0.620E-02
DAV:  28    -0.292921776085E+04   -0.36261E-01   -0.10266E-03  6864   0.377E-02    0.388E-02
DAV:  29    -0.292922400267E+04   -0.62418E-02   -0.29989E-04  6736   0.217E-02    0.289E-02
DAV:  30    -0.292923026208E+04   -0.62594E-02   -0.14620E-04  6400   0.147E-02    0.154E-02
DAV:  31    -0.292923272166E+04   -0.24596E-02   -0.91141E-05  6240   0.122E-02    0.108E-02
DAV:  32    -0.292923450997E+04   -0.17883E-02   -0.37206E-05  5824   0.805E-03    0.757E-03
DAV:  33    -0.292923623422E+04   -0.17243E-02   -0.28967E-05  5824   0.651E-03    0.516E-03
DAV:  34    -0.292923683826E+04   -0.60405E-03   -0.10249E-05  4960   0.415E-03    0.387E-03
DAV:  35    -0.292923772151E+04   -0.88325E-03   -0.10740E-05  5120   0.308E-03    0.263E-03
DAV:  36    -0.292923801333E+04   -0.29182E-03   -0.38783E-06  4896   0.201E-03    0.160E-03
DAV:  37    -0.292923814660E+04   -0.13327E-03   -0.22542E-06  4928   0.147E-03    0.111E-03
DAV:  38    -0.292923820707E+04   -0.60473E-04   -0.12771E-06  4912   0.109E-03    0.993E-04
DAV:  39    -0.292923823303E+04   -0.25961E-04   -0.48817E-07  4848   0.669E-04    0.630E-04
DAV:  40    -0.292923825118E+04   -0.18146E-04   -0.30564E-07  4848   0.564E-04    0.330E-04
DAV:  41    -0.292923825957E+04   -0.83957E-05   -0.17067E-07  4848   0.398E-04
   1 F= -.29649471E+04 E0= -.29649471E+04  d E =-.296495E+04  mag=    -0.0000
       N       E                     dE             d eps       ncg     rms          rms(c)
DAV:   1    -0.292922699654E+04    0.11255E-01   -0.14333E+01  5600   0.288E+00    0.158E+00
DAV:   2    -0.292925827433E+04   -0.31278E-01   -0.41358E-01  6832   0.466E-01    0.629E-01
DAV:   3    -0.292925496178E+04    0.33125E-02   -0.25722E-02  6816   0.117E-01    0.454E-01
DAV:   4    -0.292925640898E+04   -0.14472E-02   -0.55815E-02  6992   0.911E-02    0.548E-01
DAV:   5    -0.292925215894E+04    0.42500E-02   -0.31383E-02  6912   0.814E-02    0.104E-01
DAV:   6    -0.292925198230E+04    0.17664E-03   -0.17269E-03  6816   0.397E-02    0.659E-02
DAV:   7    -0.292925193163E+04    0.50672E-04   -0.42795E-04  6816   0.222E-02    0.507E-02
DAV:   8    -0.292925188611E+04    0.45526E-04   -0.43768E-05  6496   0.109E-02    0.256E-02
DAV:   9    -0.292925186201E+04    0.24098E-04   -0.23622E-05  6016   0.116E-02    0.855E-03
DAV:  10    -0.292925186089E+04    0.11133E-05   -0.18068E-05  5632   0.947E-03
   2 F= -.29649602E+04 E0= -.29649602E+04  d E =-.131467E-01  mag=    -0.0000
       N       E                     dE             d eps       ncg     rms          rms(c)
DAV:   1    -0.292926087280E+04   -0.90108E-02   -0.25507E+00  5632   0.122E+00    0.621E-01
DAV:   2    -0.292926662106E+04   -0.57483E-02   -0.75461E-02  6880   0.194E-01    0.259E-01
DAV:   3    -0.292926603444E+04    0.58662E-03   -0.46633E-03  6816   0.497E-02    0.195E-01
DAV:   4    -0.292926628317E+04   -0.24872E-03   -0.98084E-03  6976   0.386E-02    0.226E-01
DAV:   5    -0.292926559585E+04    0.68731E-03   -0.54836E-03  6688   0.341E-02    0.476E-02
DAV:   6    -0.292926557176E+04    0.24096E-04   -0.31301E-04  6784   0.161E-02    0.299E-02
DAV:   7    -0.292926556719E+04    0.45725E-05   -0.78112E-05  6784   0.922E-03
   3 F= -.29649741E+04 E0= -.29649741E+04  d E =-.270442E-01  mag=    -0.0000
       N       E                     dE             d eps       ncg     rms          rms(c)
DAV:   1    -0.292928878690E+04   -0.23215E-01   -0.30688E+00  5632   0.126E+00    0.551E-01
DAV:   2    -0.292929556391E+04   -0.67770E-02   -0.91050E-02  6944   0.201E-01    0.324E-01
DAV:   3    -0.292929538368E+04    0.18024E-03   -0.74659E-03  6720   0.517E-02    0.235E-01
DAV:   4    -0.292929559653E+04   -0.21286E-03   -0.10826E-02  6784   0.354E-02    0.258E-01
DAV:   5    -0.292929492145E+04    0.67508E-03   -0.59692E-03  6528   0.330E-02    0.805E-02
DAV:   6    -0.292929489632E+04    0.25130E-04   -0.35726E-04  6656   0.167E-02    0.372E-02
DAV:   7    -0.292929488420E+04    0.12122E-04   -0.14959E-04  6784   0.120E-02    0.210E-02
DAV:   8    -0.292929488470E+04   -0.50187E-06   -0.20242E-05  5696   0.371E-03
   4 F= -.29650037E+04 E0= -.29650037E+04  d E =-.295702E-01  mag=    -0.0000
       N       E                     dE             d eps       ncg     rms          rms(c)
DAV:   1    -0.292929942251E+04   -0.45383E-02   -0.27962E+00  5632   0.120E+00    0.525E-01
DAV:   2    -0.292930563702E+04   -0.62145E-02   -0.82514E-02  6944   0.190E-01    0.302E-01
DAV:   3    -0.292930542052E+04    0.21650E-03   -0.54214E-03  6752   0.470E-02    0.213E-01
DAV:   4    -0.292930573452E+04   -0.31400E-03   -0.91262E-03  6784   0.336E-02    0.250E-01
DAV:   5    -0.292930508660E+04    0.64792E-03   -0.58534E-03  6464   0.311E-02    0.748E-02
DAV:   6    -0.292930505906E+04    0.27541E-04   -0.34552E-04  6560   0.157E-02    0.347E-02
DAV:   7    -0.292930504958E+04    0.94767E-05   -0.13445E-04  6784   0.114E-02    0.198E-02
DAV:   8    -0.292930505070E+04   -0.11184E-05   -0.17554E-05  5680   0.346E-03
   5 F= -.29650141E+04 E0= -.29650141E+04  d E =-.399805E-01  mag=    -0.0000
       N       E                     dE             d eps       ncg     rms          rms(c)
DAV:   1    -0.292932230802E+04   -0.17258E-01   -0.28957E+00  5632   0.125E+00    0.606E-01
DAV:   2    -0.292933042121E+04   -0.81132E-02   -0.98549E-02  6784   0.201E-01    0.327E-01
DAV:   3    -0.292932991432E+04    0.50689E-03   -0.21344E-03  6784   0.385E-02    0.249E-01
DAV:   4    -0.292932995146E+04   -0.37138E-04   -0.35819E-03  6816   0.340E-02    0.197E-01
DAV:   5    -0.292932986763E+04    0.83825E-04   -0.70309E-03  6976   0.323E-02    0.140E-01
DAV:   6    -0.292932961903E+04    0.24860E-03   -0.21194E-03  7392   0.217E-02    0.303E-02
DAV:   7    -0.292932960934E+04    0.96885E-05   -0.10080E-04  6672   0.801E-03    0.216E-02
DAV:   8    -0.292932960747E+04    0.18693E-05   -0.52594E-06  5104   0.268E-03
   6 F= -.29650386E+04 E0= -.29650386E+04  d E =-.245607E-01  mag=    -0.0000
       N       E                     dE             d eps       ncg     rms          rms(c)
DAV:   1    -0.292932984515E+04   -0.23581E-03   -0.20487E+00  5632   0.105E+00    0.520E-01
DAV:   2    -0.292933556139E+04   -0.57162E-02   -0.69589E-02  6784   0.170E-01    0.271E-01
DAV:   3    -0.292933518590E+04    0.37549E-03   -0.14731E-03  6800   0.331E-02    0.201E-01
DAV:   4    -0.292933518850E+04   -0.26013E-05   -0.24403E-03  6800   0.308E-02    0.154E-01
DAV:   5    -0.292933515476E+04    0.33733E-04   -0.48410E-03  6960   0.277E-02    0.115E-01
DAV:   6    -0.292933497404E+04    0.18073E-03   -0.14803E-03  7056   0.180E-02    0.272E-02
DAV:   7    -0.292933496713E+04    0.69049E-05   -0.68619E-05  6624   0.677E-03
   7 F= -.29650440E+04 E0= -.29650440E+04  d E =-.299284E-01  mag=    -0.0000
       N       E                     dE             d eps       ncg     rms          rms(c)
DAV:   1    -0.292934452015E+04   -0.95461E-02   -0.25469E+00  5600   0.117E+00    0.497E-01
DAV:   2    -0.292935178581E+04   -0.72657E-02   -0.86364E-02  6656   0.188E-01    0.309E-01
DAV:   3    -0.292935159669E+04    0.18912E-03   -0.70635E-03  6752   0.420E-02    0.255E-01
DAV:   4    -0.292935140046E+04    0.19623E-03   -0.65360E-03  6592   0.275E-02    0.212E-01
DAV:   5    -0.292935108637E+04    0.31408E-03   -0.32446E-03  6528   0.304E-02    0.770E-02
DAV:   6    -0.292935107076E+04    0.15609E-04   -0.40650E-04  6784   0.159E-02    0.280E-02
DAV:   7    -0.292935107048E+04    0.28539E-06   -0.74603E-05  6752   0.859E-03
   8 F= -.29650599E+04 E0= -.29650599E+04  d E =-.158769E-01  mag=    -0.0000
       N       E                     dE             d eps       ncg     rms          rms(c)
DAV:   1    -0.292935096086E+04    0.10991E-03   -0.13300E+00  5632   0.841E-01    0.363E-01
DAV:   2    -0.292935473791E+04   -0.37771E-02   -0.44857E-02  6688   0.135E-01    0.217E-01
DAV:   3    -0.292935462844E+04    0.10947E-03   -0.31464E-03  6784   0.297E-02    0.175E-01
DAV:   4    -0.292935456879E+04    0.59644E-04   -0.33482E-03  6656   0.201E-02    0.152E-01
DAV:   5    -0.292935438835E+04    0.18044E-03   -0.18293E-03  6400   0.227E-02    0.534E-02
DAV:   6    -0.292935437817E+04    0.10184E-04   -0.21685E-04  6720   0.123E-02    0.206E-02
DAV:   7    -0.292935437930E+04   -0.11312E-05   -0.41212E-05  6592   0.667E-03
   9 F= -.29650630E+04 E0= -.29650630E+04  d E =-.190257E-01  mag=    -0.0000
       N       E                     dE             d eps       ncg     rms          rms(c)
DAV:   1    -0.292936593399E+04   -0.11556E-01   -0.24810E+00  5600   0.115E+00    0.535E-01
DAV:   2    -0.292937271193E+04   -0.67779E-02   -0.81018E-02  6752   0.181E-01    0.363E-01
DAV:   3    -0.292937257046E+04    0.14146E-03   -0.11172E-02  6688   0.452E-02    0.253E-01
DAV:   4    -0.292937246952E+04    0.10094E-03   -0.12627E-02  6592   0.344E-02    0.253E-01
DAV:   5    -0.292937183079E+04    0.63873E-03   -0.44507E-03  6432   0.287E-02    0.822E-02
DAV:   6    -0.292937182313E+04    0.76561E-05   -0.29178E-04  6752   0.153E-02    0.243E-02
DAV:   7    -0.292937182229E+04    0.84081E-06   -0.55190E-05  6688   0.724E-03
  10 F= -.29650797E+04 E0= -.29650797E+04  d E =-.166817E-01  mag=    -0.0000
       N       E                     dE             d eps       ncg     rms          rms(c)
DAV:   1    -0.292937349688E+04   -0.16737E-02   -0.19086E+00  5600   0.100E+00    0.467E-01
DAV:   2    -0.292937873973E+04   -0.52428E-02   -0.62630E-02  6736   0.158E-01    0.319E-01
DAV:   3    -0.292937863848E+04    0.10124E-03   -0.85912E-03  6720   0.396E-02    0.222E-01
DAV:   4    -0.292937857705E+04    0.61434E-04   -0.99667E-03  6576   0.304E-02    0.225E-01
DAV:   5    -0.292937806425E+04    0.51279E-03   -0.35290E-03  6336   0.256E-02    0.720E-02
DAV:   6    -0.292937805658E+04    0.76783E-05   -0.22621E-04  6720   0.141E-02    0.217E-02
DAV:   7    -0.292937805610E+04    0.47422E-06   -0.46813E-05  6688   0.679E-03
  11 F= -.29650853E+04 E0= -.29650853E+04  d E =-.222491E-01  mag=    -0.0000
       N       E                     dE             d eps       ncg     rms          rms(c)
DAV:   1    -0.292938430293E+04   -0.62464E-02   -0.35469E+00  5568   0.145E+00    0.649E-01
DAV:   2    -0.292939261540E+04   -0.83125E-02   -0.10375E-01  6848   0.224E-01    0.366E-01
DAV:   3    -0.292939219468E+04    0.42072E-03   -0.85368E-03  6720   0.538E-02    0.248E-01
DAV:   4    -0.292939252896E+04   -0.33427E-03   -0.15406E-02  6720   0.420E-02    0.301E-01
DAV:   5    -0.292939146605E+04    0.10629E-02   -0.72889E-03  6480   0.362E-02    0.832E-02
DAV:   6    -0.292939143632E+04    0.29732E-04   -0.43867E-04  6672   0.212E-02    0.316E-02
DAV:   7    -0.292939143278E+04    0.35395E-05   -0.11455E-04  6784   0.108E-02    0.271E-02
DAV:   8    -0.292939142925E+04    0.35281E-05   -0.11174E-05  5184   0.396E-03
  12 F= -.29650978E+04 E0= -.29650978E+04  d E =-.124804E-01  mag=    -0.0000
       N       E                     dE             d eps       ncg     rms          rms(c)
DAV:   1    -0.292939161835E+04   -0.18557E-03   -0.13981E-01  5632   0.287E-01    0.123E-01
DAV:   2    -0.292939195044E+04   -0.33209E-03   -0.41611E-03  6880   0.453E-02    0.736E-02
DAV:   3    -0.292939193014E+04    0.20299E-04   -0.29275E-04  6688   0.110E-02    0.481E-02
DAV:   4    -0.292939194732E+04   -0.17178E-04   -0.58664E-04  5952   0.867E-03    0.624E-02
DAV:   5    -0.292939190128E+04    0.46046E-04   -0.30831E-04  6032   0.781E-03    0.178E-02
DAV:   6    -0.292939189928E+04    0.19987E-05   -0.19611E-05  5472   0.572E-03
  13 F= -.29650981E+04 E0= -.29650981E+04  d E =-.127740E-01  mag=    -0.0000
       N       E                     dE             d eps       ncg     rms          rms(c)
DAV:   1    -0.292939574510E+04   -0.38438E-02   -0.26525E+00  5568   0.123E+00    0.468E-01
DAV:   2    -0.292940161524E+04   -0.58701E-02   -0.71395E-02  6816   0.181E-01    0.241E-01
DAV:   3    -0.292940125267E+04    0.36257E-03   -0.14798E-03  6848   0.328E-02    0.169E-01
DAV:   4    -0.292940117701E+04    0.75657E-04   -0.16645E-03  6688   0.290E-02    0.128E-01
DAV:   5    -0.292940112618E+04    0.50826E-04   -0.28166E-03  6752   0.212E-02    0.789E-02
DAV:   6    -0.292940103879E+04    0.87389E-04   -0.66297E-04  6304   0.132E-02    0.232E-02
DAV:   7    -0.292940103526E+04    0.35355E-05   -0.54741E-05  6656   0.736E-03
  14 F= -.29651069E+04 E0= -.29651069E+04  d E =-.884629E-02  mag=    -0.0000
       N       E                     dE             d eps       ncg     rms          rms(c)
DAV:   1    -0.292940107348E+04   -0.34685E-04   -0.61273E-01  5600   0.590E-01    0.227E-01
DAV:   2    -0.292940243370E+04   -0.13602E-02   -0.16610E-02  6784   0.873E-02    0.113E-01
DAV:   3    -0.292940235074E+04    0.82957E-04   -0.33918E-04  6816   0.163E-02    0.787E-02
DAV:   4    -0.292940233388E+04    0.16862E-04   -0.37331E-04  6656   0.146E-02    0.597E-02
DAV:   5    -0.292940232417E+04    0.97047E-05   -0.64799E-04  6720   0.109E-02    0.378E-02
DAV:   6    -0.292940230389E+04    0.20285E-04   -0.15216E-04  5472   0.682E-03    0.112E-02
DAV:   7    -0.292940230412E+04   -0.22794E-06   -0.13912E-05  5408   0.409E-03
  15 F= -.29651080E+04 E0= -.29651080E+04  d E =-.997654E-02  mag=    -0.0000
       N       E                     dE             d eps       ncg     rms          rms(c)
DAV:   1    -0.292940564745E+04   -0.33436E-02   -0.24225E+00  5568   0.124E+00    0.529E-01
DAV:   2    -0.292941115113E+04   -0.55037E-02   -0.68091E-02  6848   0.189E-01    0.251E-01
DAV:   3    -0.292941071573E+04    0.43539E-03   -0.16872E-03  6784   0.362E-02    0.169E-01
DAV:   4    -0.292941083516E+04   -0.11942E-03   -0.36421E-03  6816   0.303E-02    0.178E-01
DAV:   5    -0.292941051958E+04    0.31558E-03   -0.41569E-03  6816   0.253E-02    0.731E-02
DAV:   6    -0.292941046290E+04    0.56681E-04   -0.59273E-04  6416   0.166E-02    0.248E-02
DAV:   7    -0.292941045741E+04    0.54830E-05   -0.79966E-05  6784   0.900E-03
  16 F= -.29651158E+04 E0= -.29651158E+04  d E =-.778674E-02  mag=    -0.0000
       N       E                     dE             d eps       ncg     rms          rms(c)
DAV:   1    -0.292941049818E+04   -0.35287E-04   -0.10552E-01  5632   0.259E-01    0.121E-01
DAV:   2    -0.292941073868E+04   -0.24050E-03   -0.29998E-03  6848   0.397E-02    0.495E-02
DAV:   3    -0.292941071848E+04    0.20197E-04   -0.59702E-05  6720   0.818E-03    0.330E-02
DAV:   4    -0.292941071459E+04    0.38922E-05   -0.83542E-05  6080   0.787E-03    0.260E-02
DAV:   5    -0.292941071191E+04    0.26773E-05   -0.15314E-04  5760   0.622E-03    0.183E-02
DAV:   6    -0.292941070722E+04    0.46935E-05   -0.34189E-05  5056   0.408E-03
  17 F= -.29651160E+04 E0= -.29651160E+04  d E =-.796017E-02  mag=    -0.0000
       N       E                     dE             d eps       ncg     rms          rms(c)
DAV:   1    -0.292941364895E+04   -0.29370E-02   -0.19249E+00  5568   0.109E+00    0.430E-01
DAV:   2    -0.292941826863E+04   -0.46197E-02   -0.54641E-02  6816   0.164E-01    0.246E-01
DAV:   3    -0.292941799010E+04    0.27854E-03   -0.96848E-04  6784   0.278E-02    0.160E-01
DAV:   4    -0.292941791458E+04    0.75518E-04   -0.99360E-04  6624   0.244E-02    0.116E-01
DAV:   5    -0.292941793369E+04   -0.19112E-04   -0.18880E-03  6848   0.184E-02    0.792E-02
DAV:   6    -0.292941785763E+04    0.76061E-04   -0.72100E-04  6272   0.107E-02    0.245E-02
DAV:   7    -0.292941785157E+04    0.60564E-05   -0.44702E-05  6304   0.649E-03
  18 F= -.29651228E+04 E0= -.29651228E+04  d E =-.678946E-02  mag=    -0.0000
       N       E                     dE             d eps       ncg     rms          rms(c)
DAV:   1    -0.292941621574E+04    0.16419E-02   -0.13432E+00  5568   0.909E-01    0.363E-01
DAV:   2    -0.292941944916E+04   -0.32334E-02   -0.38270E-02  6848   0.137E-01    0.204E-01
DAV:   3    -0.292941925961E+04    0.18955E-03   -0.65932E-04  6816   0.233E-02    0.132E-01
DAV:   4    -0.292941917764E+04    0.81975E-04   -0.42908E-04  6592   0.198E-02    0.830E-02
DAV:   5    -0.292941920162E+04   -0.23986E-04   -0.62781E-04  6848   0.147E-02    0.512E-02
DAV:   6    -0.292941917308E+04    0.28546E-04   -0.40014E-04  6208   0.833E-03    0.243E-02
DAV:   7    -0.292941916724E+04    0.58390E-05   -0.41929E-05  5520   0.511E-03
  19 F= -.29651238E+04 E0= -.29651238E+04  d E =-.780914E-02  mag=    -0.0000
       N       E                     dE             d eps       ncg     rms          rms(c)
DAV:   1    -0.292942307541E+04   -0.39023E-02   -0.83329E-01  5568   0.704E-01    0.289E-01
DAV:   2    -0.292942515053E+04   -0.20751E-02   -0.24236E-02  6752   0.106E-01    0.151E-01
DAV:   3    -0.292942505659E+04    0.93949E-04   -0.43950E-04  6720   0.173E-02    0.106E-01
DAV:   4    -0.292942508379E+04   -0.27205E-04   -0.80647E-04  6752   0.164E-02    0.883E-02
DAV:   5    -0.292942503541E+04    0.48382E-04   -0.12035E-03  6912   0.130E-02    0.488E-02
DAV:   6    -0.292942501354E+04    0.21871E-04   -0.20417E-04  5760   0.705E-03    0.129E-02
DAV:   7    -0.292942501322E+04    0.32072E-06   -0.16426E-05  5568   0.416E-03
  20 F= -.29651294E+04 E0= -.29651294E+04  d E =-.558253E-02  mag=    -0.0000
       N       E                     dE             d eps       ncg     rms          rms(c)
DAV:   1    -0.292941807964E+04    0.69339E-02   -0.57512E+00  5568   0.185E+00    0.782E-01
DAV:   2    -0.292943240502E+04   -0.14325E-01   -0.16692E-01  6688   0.277E-01    0.405E-01
DAV:   3    -0.292943169757E+04    0.70745E-03   -0.29629E-03  6880   0.456E-02    0.284E-01
DAV:   4    -0.292943168756E+04    0.10010E-04   -0.45383E-03  6720   0.439E-02    0.213E-01
DAV:   5    -0.292943148954E+04    0.19802E-03   -0.73637E-03  6784   0.332E-02    0.132E-01
DAV:   6    -0.292943130572E+04    0.18382E-03   -0.15473E-03  6304   0.186E-02    0.346E-02
DAV:   7    -0.292943129464E+04    0.11080E-04   -0.11202E-04  6752   0.107E-02    0.264E-02
DAV:   8    -0.292943129367E+04    0.96636E-06   -0.11492E-05  5376   0.413E-03
  21 F= -.29651350E+04 E0= -.29651350E+04  d E =-.111720E-01  mag=    -0.0000
       N       E                     dE             d eps       ncg     rms          rms(c)
DAV:   1    -0.292943622324E+04   -0.49286E-02   -0.14507E+00  5568   0.934E-01    0.426E-01
DAV:   2    -0.292943995198E+04   -0.37287E-02   -0.43344E-02  6624   0.144E-01    0.201E-01
DAV:   3    -0.292943973694E+04    0.21504E-03   -0.83336E-04  6880   0.247E-02    0.142E-01
DAV:   4    -0.292943985447E+04   -0.11753E-03   -0.21224E-03  6752   0.240E-02    0.134E-01
DAV:   5    -0.292943967883E+04    0.17564E-03   -0.24513E-03  6688   0.187E-02    0.473E-02
DAV:   6    -0.292943965684E+04    0.21992E-04   -0.23700E-04  5952   0.874E-03    0.180E-02
DAV:   7    -0.292943965860E+04   -0.17610E-05   -0.17245E-05  5472   0.435E-03
  22 F= -.29651427E+04 E0= -.29651427E+04  d E =-.768695E-02  mag=    -0.0000
       N       E                     dE             d eps       ncg     rms          rms(c)
DAV:   1    -0.292943926456E+04    0.39228E-03   -0.20347E+00  5568   0.111E+00    0.510E-01
DAV:   2    -0.292944447094E+04   -0.52064E-02   -0.60638E-02  6624   0.171E-01    0.237E-01
DAV:   3    -0.292944416282E+04    0.30812E-03   -0.10616E-03  6912   0.292E-02    0.164E-01
DAV:   4    -0.292944413518E+04    0.27637E-04   -0.15230E-03  6624   0.290E-02    0.109E-01
DAV:   5    -0.292944410021E+04    0.34972E-04   -0.22192E-03  6720   0.195E-02    0.682E-02
DAV:   6    -0.292944404295E+04    0.57259E-04   -0.51844E-04  6144   0.105E-02    0.219E-02
DAV:   7    -0.292944404120E+04    0.17465E-05   -0.28746E-05  5664   0.515E-03
  23 F= -.29651462E+04 E0= -.29651462E+04  d E =-.112662E-01  mag=    -0.0000
       N       E                     dE             d eps       ncg     rms          rms(c)
DAV:   1    -0.292944891452E+04   -0.48716E-02   -0.16881E+00  5568   0.102E+00    0.436E-01
DAV:   2    -0.292945297395E+04   -0.40594E-02   -0.48626E-02  6720   0.157E-01    0.226E-01
DAV:   3    -0.292945271803E+04    0.25592E-03   -0.93167E-04  6816   0.277E-02    0.150E-01
DAV:   4    -0.292945265208E+04    0.65947E-04   -0.83239E-04  6688   0.227E-02    0.996E-02
DAV:   5    -0.292945268531E+04   -0.33229E-04   -0.17312E-03  6880   0.176E-02    0.801E-02
DAV:   6    -0.292945260694E+04    0.78372E-04   -0.69141E-04  6144   0.106E-02    0.217E-02
DAV:   7    -0.292945260299E+04    0.39552E-05   -0.33251E-05  5792   0.573E-03
  24 F= -.29651541E+04 E0= -.29651541E+04  d E =-.785534E-02  mag=    -0.0000
       N       E                     dE             d eps       ncg     rms          rms(c)
DAV:   1    -0.292945237464E+04    0.23230E-03   -0.12466E+00  5568   0.879E-01    0.375E-01
DAV:   2    -0.292945537796E+04   -0.30033E-02   -0.35986E-02  6720   0.135E-01    0.193E-01
DAV:   3    -0.292945518800E+04    0.18995E-03   -0.68626E-04  6944   0.240E-02    0.128E-01
DAV:   4    -0.292945513514E+04    0.52865E-04   -0.61523E-04  6656   0.200E-02    0.845E-02
DAV:   5    -0.292945515806E+04   -0.22925E-04   -0.12698E-03  6816   0.155E-02    0.682E-02
DAV:   6    -0.292945510051E+04    0.57554E-04   -0.50321E-04  5856   0.939E-03    0.188E-02
DAV:   7    -0.292945509802E+04    0.24876E-05   -0.24422E-05  5600   0.516E-03
  25 F= -.29651560E+04 E0= -.29651560E+04  d E =-.974339E-02  mag=    -0.0000
       N       E                     dE             d eps       ncg     rms          rms(c)
DAV:   1    -0.292945912827E+04   -0.40278E-02   -0.15911E+00  5568   0.992E-01    0.413E-01
DAV:   2    -0.292946287193E+04   -0.37437E-02   -0.44318E-02  6720   0.148E-01    0.212E-01
DAV:   3    -0.292946265541E+04    0.21652E-03   -0.82163E-04  6800   0.247E-02    0.145E-01
DAV:   4    -0.292946268591E+04   -0.30500E-04   -0.13904E-03  6672   0.215E-02    0.118E-01
DAV:   5    -0.292946262951E+04    0.56399E-04   -0.23658E-03  6912   0.177E-02    0.733E-02
DAV:   6    -0.292946257203E+04    0.57484E-04   -0.56452E-04  6112   0.101E-02    0.182E-02
DAV:   7    -0.292946257100E+04    0.10289E-05   -0.26992E-05  5472   0.485E-03
  26 F= -.29651630E+04 E0= -.29651630E+04  d E =-.702925E-02  mag=    -0.0000
       N       E                     dE             d eps       ncg     rms          rms(c)
DAV:   1    -0.292945984069E+04    0.27313E-02   -0.30570E+00  5568   0.138E+00    0.572E-01
DAV:   2    -0.292946703012E+04   -0.71894E-02   -0.85048E-02  6752   0.204E-01    0.294E-01
DAV:   3    -0.292946660751E+04    0.42261E-03   -0.15263E-03  6864   0.343E-02    0.201E-01
DAV:   4    -0.292946656362E+04    0.43888E-04   -0.19210E-03  6688   0.295E-02    0.143E-01
DAV:   5    -0.292946657827E+04   -0.14649E-04   -0.39799E-03  6816   0.242E-02    0.110E-01
DAV:   6    -0.292946643260E+04    0.14568E-03   -0.13511E-03  6352   0.145E-02    0.265E-02
DAV:   7    -0.292946642753E+04    0.50687E-05   -0.61185E-05  6240   0.657E-03
  27 F= -.29651663E+04 E0= -.29651663E+04  d E =-.102702E-01  mag=    -0.0000
       N       E                     dE             d eps       ncg     rms          rms(c)
DAV:   1    -0.292946859959E+04   -0.21670E-02   -0.21644E+00  5568   0.119E+00    0.484E-01
DAV:   2    -0.292947367634E+04   -0.50768E-02   -0.60378E-02  6784   0.180E-01    0.232E-01
DAV:   3    -0.292947334091E+04    0.33543E-03   -0.16285E-03  6784   0.321E-02    0.167E-01
DAV:   4    -0.292947364556E+04   -0.30465E-03   -0.50372E-03  6912   0.284E-02    0.199E-01
DAV:   5    -0.292947319635E+04    0.44921E-03   -0.43645E-03  6528   0.280E-02    0.430E-02
DAV:   6    -0.292947318390E+04    0.12455E-04   -0.27624E-04  6720   0.119E-02    0.223E-02
DAV:   7    -0.292947318668E+04   -0.27794E-05   -0.26018E-05  5952   0.541E-03
  28 F= -.29651727E+04 E0= -.29651727E+04  d E =-.648042E-02  mag=    -0.0000
       N       E                     dE             d eps       ncg     rms          rms(c)
DAV:   1    -0.292947326850E+04   -0.84605E-04   -0.18825E-01  5632   0.351E-01    0.145E-01
DAV:   2    -0.292947371567E+04   -0.44717E-03   -0.52799E-03  6816   0.534E-02    0.679E-02
DAV:   3    -0.292947368542E+04    0.30253E-04   -0.88184E-05  6784   0.931E-03    0.467E-02
DAV:   4    -0.292947368528E+04    0.13330E-06   -0.13074E-04  6400   0.989E-03    0.298E-02
DAV:   5    -0.292947368563E+04   -0.34331E-06   -0.18767E-04  6304   0.640E-03    0.196E-02
DAV:   6    -0.292947368225E+04    0.33782E-05   -0.41370E-05  5088   0.322E-03
  29 F= -.29651732E+04 E0= -.29651732E+04  d E =-.689373E-02  mag=    -0.0000
       N       E                     dE             d eps       ncg     rms          rms(c)
DAV:   1    -0.292947645418E+04   -0.27685E-02   -0.11645E+00  5568   0.890E-01    0.363E-01
DAV:   2    -0.292947921184E+04   -0.27577E-02   -0.33217E-02  6816   0.136E-01    0.188E-01
DAV:   3    -0.292947912954E+04    0.82301E-04   -0.31540E-03  6784   0.300E-02    0.157E-01
DAV:   4    -0.292947905841E+04    0.71124E-04   -0.37968E-03  6560   0.208E-02    0.133E-01
DAV:   5    -0.292947889028E+04    0.16813E-03   -0.14935E-03  6528   0.200E-02    0.392E-02
DAV:   6    -0.292947889139E+04   -0.11113E-05   -0.13259E-04  6784   0.103E-02    0.169E-02
DAV:   7    -0.292947889190E+04   -0.50571E-06   -0.22799E-05  5696   0.507E-03
  30 F= -.29651784E+04 E0= -.29651784E+04  d E =-.521563E-02  mag=    -0.0000
       N       E                     dE             d eps       ncg     rms          rms(c)
DAV:   1    -0.292947886498E+04    0.26406E-04   -0.34007E-01  5568   0.481E-01    0.198E-01
DAV:   2    -0.292947967323E+04   -0.80825E-03   -0.97117E-03  6848   0.734E-02    0.988E-02
DAV:   3    -0.292947963989E+04    0.33341E-04   -0.67151E-04  6816   0.155E-02    0.785E-02
DAV:   4    -0.292947964435E+04   -0.44612E-05   -0.10300E-03  6400   0.112E-02    0.754E-02
DAV:   5    -0.292947958784E+04    0.56513E-04   -0.50678E-04  6176   0.110E-02    0.208E-02
DAV:   6    -0.292947958876E+04   -0.92422E-06   -0.41234E-05  6016   0.596E-03
  31 F= -.29651791E+04 E0= -.29651791E+04  d E =-.591582E-02  mag=    -0.0000
       N       E                     dE             d eps       ncg     rms          rms(c)
DAV:   1    -0.292948149935E+04   -0.19115E-02   -0.12332E+00  5568   0.933E-01    0.373E-01
DAV:   2    -0.292948426576E+04   -0.27664E-02   -0.33812E-02  6784   0.141E-01    0.185E-01
DAV:   3    -0.292948413661E+04    0.12915E-03   -0.24690E-03  6720   0.298E-02    0.147E-01
DAV:   4    -0.292948414155E+04   -0.49357E-05   -0.37062E-03  6560   0.215E-02    0.137E-01
DAV:   5    -0.292948394051E+04    0.20103E-03   -0.18342E-03  6208   0.211E-02    0.411E-02
DAV:   6    -0.292948393763E+04    0.28815E-05   -0.15810E-04  6720   0.112E-02    0.178E-02
DAV:   7    -0.292948393785E+04   -0.22317E-06   -0.29707E-05  6368   0.582E-03
  32 F= -.29651834E+04 E0= -.29651834E+04  d E =-.435849E-02  mag=    -0.0000
       N       E                     dE             d eps       ncg     rms          rms(c)
DAV:   1    -0.292948389459E+04    0.43043E-04   -0.16865E-01  5568   0.345E-01    0.140E-01
DAV:   2    -0.292948427678E+04   -0.38219E-03   -0.46363E-03  6880   0.522E-02    0.664E-02
DAV:   3    -0.292948425450E+04    0.22281E-04   -0.21446E-04  6720   0.105E-02    0.489E-02
DAV:   4    -0.292948427086E+04   -0.16365E-04   -0.46503E-04  5888   0.828E-03    0.542E-02
DAV:   5    -0.292948423841E+04    0.32456E-04   -0.31553E-04  5824   0.808E-03    0.156E-02
DAV:   6    -0.292948423870E+04   -0.29872E-06   -0.25023E-05  5408   0.467E-03
  33 F= -.29651837E+04 E0= -.29651837E+04  d E =-.466284E-02  mag=    -0.0000
       N       E                     dE             d eps       ncg     rms          rms(c)
DAV:   1    -0.292948531473E+04   -0.10763E-02   -0.13191E+00  5568   0.968E-01    0.354E-01
DAV:   2    -0.292948812608E+04   -0.28113E-02   -0.34095E-02  6752   0.144E-01    0.173E-01
DAV:   3    -0.292948788813E+04    0.23795E-03   -0.67889E-04  6816   0.269E-02    0.112E-01
DAV:   4    -0.292948784912E+04    0.39018E-04   -0.80512E-04  6656   0.238E-02    0.773E-02
DAV:   5    -0.292948784845E+04    0.66601E-06   -0.12807E-03  6880   0.158E-02    0.597E-02
DAV:   6    -0.292948780358E+04    0.44871E-04   -0.38474E-04  5728   0.874E-03    0.175E-02
DAV:   7    -0.292948780100E+04    0.25740E-05   -0.23265E-05  5568   0.495E-03
  34 F= -.29651873E+04 E0= -.29651873E+04  d E =-.358352E-02  mag=    -0.0000
       N       E                     dE             d eps       ncg     rms          rms(c)
DAV:   1    -0.292948780473E+04   -0.11559E-05   -0.40232E-02  5632   0.169E-01    0.652E-02
DAV:   2    -0.292948789334E+04   -0.88610E-04   -0.10624E-03  6816   0.255E-02    0.295E-02
DAV:   3    -0.292948788736E+04    0.59885E-05   -0.26850E-05  5696   0.522E-03    0.199E-02
DAV:   4    -0.292948789275E+04   -0.53983E-05   -0.79951E-05  5280   0.463E-03    0.243E-02
DAV:   5    -0.292948788634E+04    0.64102E-05   -0.79529E-05  5216   0.407E-03
  35 F= -.29651874E+04 E0= -.29651874E+04  d E =-.367255E-02  mag=    -0.0000
       N       E                     dE             d eps       ncg     rms          rms(c)
DAV:   1    -0.292948943652E+04   -0.15438E-02   -0.11007E+00  5568   0.890E-01    0.332E-01
DAV:   2    -0.292949183408E+04   -0.23976E-02   -0.29267E-02  6720   0.133E-01    0.166E-01
DAV:   3    -0.292949171093E+04    0.12315E-03   -0.17032E-03  6752   0.267E-02    0.124E-01
DAV:   4    -0.292949176700E+04   -0.56069E-04   -0.31072E-03  6560   0.202E-02    0.133E-01
DAV:   5    -0.292949156449E+04    0.20251E-03   -0.17112E-03  6112   0.184E-02    0.349E-02
DAV:   6    -0.292949156057E+04    0.39288E-05   -0.14600E-04  6752   0.980E-03    0.161E-02
DAV:   7    -0.292949156085E+04   -0.28231E-06   -0.19274E-05  5248   0.460E-03
  36 F= -.29651913E+04 E0= -.29651913E+04  d E =-.389246E-02  mag=    -0.0000
       N       E                     dE             d eps       ncg     rms          rms(c)
DAV:   1    -0.292949150470E+04    0.55865E-04   -0.12647E-01  5632   0.302E-01    0.116E-01
DAV:   2    -0.292949178433E+04   -0.27963E-03   -0.33904E-03  6752   0.452E-02    0.537E-02
DAV:   3    -0.292949176737E+04    0.16960E-04   -0.11370E-04  6592   0.856E-03    0.371E-02
DAV:   4    -0.292949178315E+04   -0.15786E-04   -0.29844E-04  5632   0.710E-03    0.461E-02
DAV:   5    -0.292949175916E+04    0.23995E-04   -0.23513E-04  5392   0.629E-03    0.120E-02
DAV:   6    -0.292949175979E+04   -0.63551E-06   -0.19107E-05  5152   0.357E-03
  37 F= -.29651916E+04 E0= -.29651916E+04  d E =-.416528E-02  mag=    -0.0000
       N       E                     dE             d eps       ncg     rms          rms(c)
DAV:   1    -0.292949378645E+04   -0.20273E-02   -0.80585E-01  5568   0.762E-01    0.275E-01
DAV:   2    -0.292949559378E+04   -0.18073E-02   -0.21612E-02  6688   0.113E-01    0.138E-01
DAV:   3    -0.292949550660E+04    0.87174E-04   -0.11241E-03  6752   0.220E-02    0.104E-01
DAV:   4    -0.292949555281E+04   -0.46206E-04   -0.21419E-03  6656   0.168E-02    0.112E-01
DAV:   5    -0.292949541180E+04    0.14101E-03   -0.12169E-03  6304   0.164E-02    0.269E-02
DAV:   6    -0.292949540990E+04    0.18931E-05   -0.98626E-05  6464   0.821E-03
  38 F= -.29651953E+04 E0= -.29651953E+04  d E =-.367801E-02  mag=    -0.0000
       N       E                     dE             d eps       ncg     rms          rms(c)
DAV:   1    -0.292949557561E+04   -0.16382E-03   -0.31398E-01  5568   0.475E-01    0.175E-01
DAV:   2    -0.292949628366E+04   -0.70804E-03   -0.84730E-03  6752   0.710E-02    0.835E-02
DAV:   3    -0.292949624324E+04    0.40416E-04   -0.29104E-04  6784   0.132E-02    0.594E-02
DAV:   4    -0.292949628036E+04   -0.37122E-04   -0.76228E-04  6592   0.110E-02    0.725E-02
DAV:   5    -0.292949621846E+04    0.61902E-04   -0.56178E-04  6048   0.103E-02    0.169E-02
DAV:   6    -0.292949621772E+04    0.74430E-06   -0.42544E-05  5408   0.546E-03
  39 F= -.29651961E+04 E0= -.29651961E+04  d E =-.450335E-02  mag=    -0.0000
       N       E                     dE             d eps       ncg     rms          rms(c)
DAV:   1    -0.292949860546E+04   -0.23870E-02   -0.93040E-01  5568   0.824E-01    0.301E-01
DAV:   2    -0.292950067997E+04   -0.20745E-02   -0.24999E-02  6688   0.123E-01    0.146E-01
DAV:   3    -0.292950051606E+04    0.16390E-03   -0.53675E-04  6752   0.221E-02    0.961E-02
DAV:   4    -0.292950054691E+04   -0.30850E-04   -0.97064E-04  6784   0.193E-02    0.883E-02
DAV:   5    -0.292950048640E+04    0.60515E-04   -0.13899E-03  6880   0.142E-02    0.474E-02
DAV:   6    -0.292950046037E+04    0.26025E-04   -0.23638E-04  5440   0.741E-03    0.132E-02
DAV:   7    -0.292950046086E+04   -0.48999E-06   -0.14757E-05  5184   0.409E-03
  40 F= -.29652000E+04 E0= -.29652000E+04  d E =-.389279E-02  mag=    -0.0000
       N       E                     dE             d eps       ncg     rms          rms(c)
DAV:   1    -0.292950068496E+04   -0.22458E-03   -0.25390E-01  5568   0.431E-01    0.159E-01
DAV:   2    -0.292950125344E+04   -0.56849E-03   -0.68413E-03  6688   0.646E-02    0.754E-02
DAV:   3    -0.292950120811E+04    0.45337E-04   -0.13055E-04  6816   0.116E-02    0.490E-02
DAV:   4    -0.292950119227E+04    0.15835E-04   -0.68977E-05  6496   0.991E-03    0.228E-02
DAV:   5    -0.292950119458E+04   -0.23104E-05   -0.31667E-05  6080   0.620E-03
  41 F= -.29652005E+04 E0= -.29652005E+04  d E =-.444365E-02  mag=    -0.0000
       N       E                     dE             d eps       ncg     rms          rms(c)
DAV:   1    -0.292950348094E+04   -0.22887E-02   -0.74466E-01  5568   0.733E-01    0.284E-01
DAV:   2    -0.292950515481E+04   -0.16739E-02   -0.20337E-02  6720   0.109E-01    0.145E-01
DAV:   3    -0.292950504788E+04    0.10693E-03   -0.69367E-04  6752   0.200E-02    0.978E-02
DAV:   4    -0.292950515787E+04   -0.10999E-03   -0.18589E-03  6784   0.169E-02    0.119E-01
DAV:   5    -0.292950499894E+04    0.15893E-03   -0.16967E-03  6416   0.144E-02    0.406E-02
DAV:   6    -0.292950498810E+04    0.10843E-04   -0.15520E-04  5792   0.800E-03    0.134E-02
DAV:   7    -0.292950498923E+04   -0.11325E-05   -0.13996E-05  5056   0.403E-03
  42 F= -.29652039E+04 E0= -.29652039E+04  d E =-.334330E-02  mag=    -0.0000
       N       E                     dE             d eps       ncg     rms          rms(c)
DAV:   1    -0.292950531172E+04   -0.32361E-03   -0.30236E-01  5568   0.467E-01    0.183E-01
DAV:   2    -0.292950599872E+04   -0.68701E-03   -0.83303E-03  6720   0.694E-02    0.933E-02
DAV:   3    -0.292950596416E+04    0.34563E-04   -0.44784E-04  6752   0.135E-02    0.681E-02
DAV:   4    -0.292950599609E+04   -0.31933E-04   -0.94201E-04  6048   0.108E-02    0.762E-02
DAV:   5    -0.292950593114E+04    0.64957E-04   -0.61339E-04  6016   0.983E-03    0.234E-02
DAV:   6    -0.292950593061E+04    0.52230E-06   -0.50867E-05  5408   0.563E-03
  43 F= -.29652045E+04 E0= -.29652045E+04  d E =-.399740E-02  mag=    -0.0000
       N       E                     dE             d eps       ncg     rms          rms(c)
DAV:   1    -0.292950807906E+04   -0.21479E-02   -0.62248E-01  5568   0.681E-01    0.269E-01
DAV:   2    -0.292950946715E+04   -0.13881E-02   -0.17342E-02  6688   0.104E-01    0.143E-01
DAV:   3    -0.292950940541E+04    0.61742E-04   -0.16011E-03  6752   0.234E-02    0.111E-01
DAV:   4    -0.292950942432E+04   -0.18906E-04   -0.26363E-03  6688   0.180E-02    0.113E-01
DAV:   5    -0.292950928041E+04    0.14390E-03   -0.12348E-03  6304   0.160E-02    0.297E-02
DAV:   6    -0.292950927833E+04    0.20827E-05   -0.87801E-05  6592   0.869E-03
  44 F= -.29652076E+04 E0= -.29652076E+04  d E =-.307468E-02  mag=    -0.0000
       N       E                     dE             d eps       ncg     rms          rms(c)
DAV:   1    -0.292950951621E+04   -0.23580E-03   -0.13045E-01  5568   0.312E-01    0.126E-01
DAV:   2    -0.292950980861E+04   -0.29240E-03   -0.36517E-03  6816   0.478E-02    0.630E-02
DAV:   3    -0.292950978856E+04    0.20056E-04   -0.18489E-04  6720   0.102E-02    0.440E-02
DAV:   4    -0.292950981232E+04   -0.23763E-04   -0.49239E-04  5920   0.867E-03    0.562E-02
DAV:   5    -0.292950977465E+04    0.37665E-04   -0.33804E-04  5600   0.789E-03    0.136E-02
DAV:   6    -0.292950977496E+04   -0.30390E-06   -0.21851E-05  5184   0.456E-03
  45 F= -.29652080E+04 E0= -.29652080E+04  d E =-.344675E-02  mag=    -0.0000
       N       E                     dE             d eps       ncg     rms          rms(c)
DAV:   1    -0.292951168367E+04   -0.19090E-02   -0.73488E-01  5568   0.740E-01    0.277E-01
DAV:   2    -0.292951325113E+04   -0.15675E-02   -0.19270E-02  6688   0.110E-01    0.140E-01
DAV:   3    -0.292951316156E+04    0.89573E-04   -0.11160E-03  6720   0.222E-02    0.103E-01
DAV:   4    -0.292951323651E+04   -0.74956E-04   -0.23803E-03  6752   0.177E-02    0.118E-01
DAV:   5    -0.292951308017E+04    0.15634E-03   -0.14725E-03  6304   0.166E-02    0.271E-02
DAV:   6    -0.292951307739E+04    0.27781E-05   -0.10120E-04  6560   0.800E-03    0.134E-02
DAV:   7    -0.292951307847E+04   -0.10735E-05   -0.11260E-05  4864   0.362E-03
  46 F= -.29652111E+04 E0= -.29652111E+04  d E =-.314889E-02  mag=    -0.0000
       N       E                     dE             d eps       ncg     rms          rms(c)
DAV:   1    -0.292951322907E+04   -0.15167E-03   -0.26976E-01  5568   0.448E-01    0.170E-01
DAV:   2    -0.292951380651E+04   -0.57744E-03   -0.70806E-03  6688   0.664E-02    0.833E-02
DAV:   3    -0.292951376947E+04    0.37042E-04   -0.32356E-04  6752   0.132E-02    0.587E-02
DAV:   4    -0.292951380813E+04   -0.38668E-04   -0.82639E-04  6560   0.109E-02    0.734E-02
DAV:   5    -0.292951374592E+04    0.62213E-04   -0.58521E-04  5984   0.101E-02    0.168E-02
DAV:   6    -0.292951374480E+04    0.11202E-05   -0.39582E-05  5376   0.509E-03
  47 F= -.29652117E+04 E0= -.29652117E+04  d E =-.372181E-02  mag=    -0.0000
       N       E                     dE             d eps       ncg     rms          rms(c)
DAV:   1    -0.292951555822E+04   -0.18123E-02   -0.65783E-01  5568   0.700E-01    0.256E-01
DAV:   2    -0.292951693900E+04   -0.13808E-02   -0.16874E-02  6720   0.103E-01    0.122E-01
DAV:   3    -0.292951683059E+04    0.10841E-03   -0.34003E-04  6752   0.182E-02    0.796E-02
DAV:   4    -0.292951682707E+04    0.35153E-05   -0.42943E-04  6656   0.164E-02    0.575E-02
DAV:   5    -0.292951682760E+04   -0.53365E-06   -0.77156E-04  6880   0.112E-02    0.437E-02
DAV:   6    -0.292951680227E+04    0.25336E-04   -0.22764E-04  5408   0.663E-03    0.119E-02
DAV:   7    -0.292951680265E+04   -0.37951E-06   -0.98320E-06  4896   0.281E-03
  48 F= -.29652147E+04 E0= -.29652147E+04  d E =-.305643E-02  mag=    -0.0000
       N       E                     dE             d eps       ncg     rms          rms(c)
DAV:   1    -0.292951665918E+04    0.14309E-03   -0.52324E-01  5568   0.624E-01    0.229E-01
DAV:   2    -0.292951775742E+04   -0.10982E-02   -0.13426E-02  6720   0.916E-02    0.109E-01
DAV:   3    -0.292951767379E+04    0.83636E-04   -0.33251E-04  6752   0.167E-02    0.723E-02
DAV:   4    -0.292951773621E+04   -0.62425E-04   -0.94425E-04  6800   0.153E-02    0.869E-02
DAV:   5    -0.292951765228E+04    0.83930E-04   -0.10159E-03  6528   0.119E-02    0.272E-02
DAV:   6    -0.292951764501E+04    0.72717E-05   -0.90619E-05  5248   0.617E-03
  49 F= -.29652156E+04 E0= -.29652156E+04  d E =-.389773E-02  mag=    -0.0000
       N       E                     dE             d eps       ncg     rms          rms(c)
DAV:   1    -0.292951893039E+04   -0.12781E-02   -0.87198E-01  5568   0.802E-01    0.291E-01
DAV:   2    -0.292952080712E+04   -0.18767E-02   -0.22836E-02  6688   0.119E-01    0.144E-01
DAV:   3    -0.292952068017E+04    0.12694E-03   -0.79992E-04  6752   0.230E-02    0.105E-01
DAV:   4    -0.292952080803E+04   -0.12785E-03   -0.23148E-03  6848   0.191E-02    0.123E-01
DAV:   5    -0.292952062080E+04    0.18723E-03   -0.18453E-03  6400   0.174E-02    0.337E-02
DAV:   6    -0.292952061260E+04    0.81957E-05   -0.15271E-04  6528   0.871E-03    0.139E-02
DAV:   7    -0.292952061439E+04   -0.17867E-05   -0.13984E-05  5152   0.395E-03
  50 F= -.29652187E+04 E0= -.29652187E+04  d E =-.311913E-02  mag=    -0.0000
       N       E                     dE             d eps       ncg     rms          rms(c)
DAV:   1    -0.292952011641E+04    0.49619E-03   -0.42034E-01  5568   0.557E-01    0.203E-01
DAV:   2    -0.292952101744E+04   -0.90103E-03   -0.10978E-02  6720   0.829E-02    0.997E-02
DAV:   3    -0.292952094844E+04    0.68997E-04   -0.25866E-04  6816   0.156E-02    0.671E-02
DAV:   4    -0.292952099822E+04   -0.49774E-04   -0.77316E-04  6848   0.144E-02    0.755E-02
DAV:   5    -0.292952093278E+04    0.65434E-04   -0.84001E-04  6528   0.111E-02    0.277E-02
DAV:   6    -0.292952092606E+04    0.67239E-05   -0.81864E-05  5440   0.582E-03
  51 F= -.29652191E+04 E0= -.29652191E+04  d E =-.353512E-02  mag=    -0.0000
       N       E                     dE             d eps       ncg     rms          rms(c)
DAV:   1    -0.292952212582E+04   -0.11930E-02   -0.70347E-01  5568   0.714E-01    0.262E-01
DAV:   2    -0.292952366959E+04   -0.15438E-02   -0.18500E-02  6656   0.105E-01    0.128E-01
DAV:   3    -0.292952358598E+04    0.83609E-04   -0.66156E-04  6816   0.190E-02    0.940E-02
DAV:   4    -0.292952368301E+04   -0.97030E-04   -0.17889E-03  6688   0.160E-02    0.109E-01
DAV:   5    -0.292952355172E+04    0.13129E-03   -0.13830E-03  6144   0.149E-02    0.288E-02
DAV:   6    -0.292952354816E+04    0.35601E-05   -0.10850E-04  5984   0.738E-03    0.116E-02
DAV:   7    -0.292952355068E+04   -0.25206E-05   -0.10306E-05  4896   0.346E-03
  52 F= -.29652218E+04 E0= -.29652218E+04  d E =-.271946E-02  mag=    -0.0000
       N       E                     dE             d eps       ncg     rms          rms(c)
DAV:   1    -0.292952283952E+04    0.70864E-03   -0.89173E-01  5568   0.804E-01    0.294E-01
DAV:   2    -0.292952479439E+04   -0.19549E-02   -0.23437E-02  6656   0.119E-01    0.145E-01
DAV:   3    -0.292952468923E+04    0.10516E-03   -0.88411E-04  6816   0.217E-02    0.107E-01
DAV:   4    -0.292952480082E+04   -0.11159E-03   -0.22708E-03  6752   0.179E-02    0.121E-01
DAV:   5    -0.292952463672E+04    0.16410E-03   -0.17082E-03  6144   0.170E-02    0.330E-02
DAV:   6    -0.292952463067E+04    0.60548E-05   -0.13858E-04  6240   0.860E-03    0.133E-02
DAV:   7    -0.292952463249E+04   -0.18268E-05   -0.14010E-05  5152   0.411E-03
  53 F= -.29652230E+04 E0= -.29652230E+04  d E =-.390894E-02  mag=    -0.0000
       N       E                     dE             d eps       ncg     rms          rms(c)
DAV:   1    -0.292952676919E+04   -0.21385E-02   -0.87973E-01  5568   0.810E-01    0.301E-01
DAV:   2    -0.292952870337E+04   -0.19342E-02   -0.23642E-02  6656   0.122E-01    0.144E-01
DAV:   3    -0.292952857161E+04    0.13176E-03   -0.81614E-04  6816   0.236E-02    0.102E-01
DAV:   4    -0.292952870141E+04   -0.12980E-03   -0.22818E-03  6816   0.196E-02    0.126E-01
DAV:   5    -0.292952851327E+04    0.18815E-03   -0.18404E-03  6496   0.170E-02    0.323E-02
DAV:   6    -0.292952850535E+04    0.79137E-05   -0.13996E-04  6208   0.913E-03    0.136E-02
DAV:   7    -0.292952850795E+04   -0.25980E-05   -0.16087E-05  5152   0.443E-03
  54 F= -.29652270E+04 E0= -.29652270E+04  d E =-.392742E-02  mag=    -0.0000
       N       E                     dE             d eps       ncg     rms          rms(c)
DAV:   1    -0.292952762111E+04    0.88424E-03   -0.86259E-01  5568   0.802E-01    0.299E-01
DAV:   2    -0.292952951888E+04   -0.18978E-02   -0.23236E-02  6720   0.121E-01    0.143E-01
DAV:   3    -0.292952938757E+04    0.13132E-03   -0.83985E-04  6784   0.237E-02    0.101E-01
DAV:   4    -0.292952950920E+04   -0.12163E-03   -0.22949E-03  6784   0.195E-02    0.125E-01
DAV:   5    -0.292952932090E+04    0.18830E-03   -0.17904E-03  6368   0.174E-02    0.317E-02
DAV:   6    -0.292952931291E+04    0.79933E-05   -0.13805E-04  6304   0.958E-03    0.137E-02
DAV:   7    -0.292952931568E+04   -0.27739E-05   -0.17045E-05  5216   0.467E-03
  55 F= -.29652278E+04 E0= -.29652278E+04  d E =-.478772E-02  mag=    -0.0000
       N       E                     dE             d eps       ncg     rms          rms(c)
DAV:   1    -0.292953068374E+04   -0.13708E-02   -0.47482E-01  5568   0.587E-01    0.211E-01
DAV:   2    -0.292953173611E+04   -0.10524E-02   -0.12396E-02  6688   0.853E-02    0.106E-01
DAV:   3    -0.292953168895E+04    0.47154E-04   -0.41417E-04  6784   0.148E-02    0.745E-02
DAV:   4    -0.292953176389E+04   -0.74935E-04   -0.12040E-03  6752   0.129E-02    0.930E-02
DAV:   5    -0.292953167105E+04    0.92841E-04   -0.94889E-04  6240   0.116E-02    0.235E-02
DAV:   6    -0.292953167089E+04    0.16030E-06   -0.68247E-05  5472   0.549E-03
  56 F= -.29652303E+04 E0= -.29652303E+04  d E =-.246196E-02  mag=    -0.0000
       N       E                     dE             d eps       ncg     rms          rms(c)
DAV:   1    -0.292952983081E+04    0.18402E-02   -0.21173E+00  5568   0.124E+00    0.446E-01
DAV:   2    -0.292953452441E+04   -0.46936E-02   -0.55353E-02  6688   0.180E-01    0.225E-01
DAV:   3    -0.292953430957E+04    0.21483E-03   -0.19571E-03  6784   0.316E-02    0.160E-01
DAV:   4    -0.292953462201E+04   -0.31244E-03   -0.55049E-03  6752   0.272E-02    0.197E-01
DAV:   5    -0.292953419318E+04    0.42883E-03   -0.41842E-03  6432   0.248E-02    0.489E-02
DAV:   6    -0.292953418145E+04    0.11731E-04   -0.30377E-04  6720   0.117E-02    0.219E-02
DAV:   7    -0.292953418438E+04   -0.29370E-05   -0.28653E-05  6240   0.534E-03
  57 F= -.29652330E+04 E0= -.29652330E+04  d E =-.520251E-02  mag=    -0.0000
       N       E                     dE             d eps       ncg     rms          rms(c)
DAV:   1    -0.292953729852E+04   -0.31171E-02   -0.35856E-01  5600   0.535E-01    0.214E-01
DAV:   2    -0.292953806983E+04   -0.77131E-03   -0.10005E-02  6688   0.838E-02    0.947E-02
DAV:   3    -0.292953797863E+04    0.91204E-04   -0.34960E-04  6784   0.182E-02    0.613E-02
DAV:   4    -0.292953803723E+04   -0.58600E-04   -0.10583E-03  6848   0.152E-02    0.836E-02
DAV:   5    -0.292953794316E+04    0.94066E-04   -0.84693E-04  6208   0.117E-02    0.209E-02
DAV:   6    -0.292953794035E+04    0.28159E-05   -0.56930E-05  5440   0.632E-03
  58 F= -.29652370E+04 E0= -.29652370E+04  d E =-.398820E-02  mag=    -0.0000
       N       E                     dE             d eps       ncg     rms          rms(c)
DAV:   1    -0.292953847082E+04   -0.52766E-03   -0.29747E-01  5600   0.487E-01    0.197E-01
DAV:   2    -0.292953910610E+04   -0.63528E-03   -0.82799E-03  6752   0.764E-02    0.854E-02
DAV:   3    -0.292953902318E+04    0.82916E-04   -0.26875E-04  6848   0.168E-02    0.551E-02
DAV:   4    -0.292953906751E+04   -0.44329E-04   -0.84310E-04  6864   0.145E-02    0.753E-02
DAV:   5    -0.292953898864E+04    0.78878E-04   -0.70120E-04  6144   0.110E-02    0.189E-02
DAV:   6    -0.292953898448E+04    0.41548E-05   -0.45765E-05  5312   0.607E-03
  59 F= -.29652383E+04 E0= -.29652383E+04  d E =-.524407E-02  mag=    -0.0000
       N       E                     dE             d eps       ncg     rms          rms(c)
DAV:   1    -0.292954087790E+04   -0.18893E-02   -0.29914E-01  5600   0.481E-01    0.173E-01
DAV:   2    -0.292954149305E+04   -0.61514E-03   -0.75802E-03  6656   0.716E-02    0.829E-02
DAV:   3    -0.292954144101E+04    0.52035E-04   -0.27706E-04  6848   0.142E-02    0.569E-02
DAV:   4    -0.292954148596E+04   -0.44949E-04   -0.78673E-04  6800   0.118E-02    0.712E-02
DAV:   5    -0.292954142233E+04    0.63627E-04   -0.63297E-04  5968   0.950E-03    0.198E-02
DAV:   6    -0.292954142071E+04    0.16254E-05   -0.45102E-05  5344   0.476E-03
  60 F= -.29652411E+04 E0= -.29652411E+04  d E =-.279063E-02  mag=    -0.0000
       N       E                     dE             d eps       ncg     rms          rms(c)
DAV:   1    -0.292954123538E+04    0.18695E-03   -0.56880E-01  5568   0.663E-01    0.239E-01
DAV:   2    -0.292954240328E+04   -0.11679E-02   -0.14439E-02  6688   0.988E-02    0.115E-01
DAV:   3    -0.292954230640E+04    0.96880E-04   -0.60675E-04  6880   0.199E-02    0.809E-02
DAV:   4    -0.292954238033E+04   -0.73926E-04   -0.15893E-03  6816   0.161E-02    0.981E-02
DAV:   5    -0.292954225575E+04    0.12458E-03   -0.11608E-03  6336   0.136E-02    0.266E-02
DAV:   6    -0.292954225020E+04    0.55505E-05   -0.83035E-05  5888   0.695E-03
  61 F= -.29652424E+04 E0= -.29652424E+04  d E =-.410904E-02  mag=    -0.0000
       N       E                     dE             d eps       ncg     rms          rms(c)
DAV:   1    -0.292954384044E+04   -0.15847E-02   -0.30392E-01  5568   0.483E-01    0.171E-01
DAV:   2    -0.292954446416E+04   -0.62371E-03   -0.76544E-03  6688   0.714E-02    0.801E-02
DAV:   3    -0.292954441791E+04    0.46242E-04   -0.25229E-04  6816   0.137E-02    0.561E-02
DAV:   4    -0.292954445853E+04   -0.40612E-04   -0.70801E-04  6784   0.114E-02    0.680E-02
DAV:   5    -0.292954439982E+04    0.58710E-04   -0.60323E-04  5920   0.989E-03    0.198E-02
DAV:   6    -0.292954439703E+04    0.27898E-05   -0.46435E-05  5408   0.523E-03
  62 F= -.29652449E+04 E0= -.29652449E+04  d E =-.257131E-02  mag=    -0.0000
       N       E                     dE             d eps       ncg     rms          rms(c)
DAV:   1    -0.292954383594E+04    0.56388E-03   -0.83751E-01  5568   0.802E-01    0.284E-01
DAV:   2    -0.292954555317E+04   -0.17172E-02   -0.21076E-02  6656   0.119E-01    0.134E-01
DAV:   3    -0.292954543286E+04    0.12031E-03   -0.92703E-04  6816   0.235E-02    0.997E-02
DAV:   4    -0.292954550755E+04   -0.74695E-04   -0.21130E-03  6752   0.181E-02    0.110E-01
DAV:   5    -0.292954535080E+04    0.15675E-03   -0.14851E-03  6240   0.173E-02    0.317E-02
DAV:   6    -0.292954534189E+04    0.89121E-05   -0.12362E-04  6720   0.921E-03    0.134E-02
DAV:   7    -0.292954534265E+04   -0.76561E-06   -0.16149E-05  5040   0.473E-03
  63 F= -.29652466E+04 E0= -.29652466E+04  d E =-.422184E-02  mag=    -0.0000
       N       E                     dE             d eps       ncg     rms          rms(c)
DAV:   1    -0.292954701567E+04   -0.16738E-02   -0.47368E-01  5568   0.608E-01    0.214E-01
DAV:   2    -0.292954805528E+04   -0.10396E-02   -0.12535E-02  6656   0.915E-02    0.104E-01
DAV:   3    -0.292954797683E+04    0.78448E-04   -0.49260E-04  6816   0.182E-02    0.764E-02
DAV:   4    -0.292954803012E+04   -0.53291E-04   -0.12462E-03  6880   0.145E-02    0.857E-02
DAV:   5    -0.292954793685E+04    0.93272E-04   -0.91170E-04  6336   0.133E-02    0.237E-02
DAV:   6    -0.292954793302E+04    0.38263E-05   -0.74812E-05  5760   0.688E-03
  64 F= -.29652498E+04 E0= -.29652498E+04  d E =-.316069E-02  mag=    -0.0000
       N       E                     dE             d eps       ncg     rms          rms(c)
DAV:   1    -0.292954770562E+04    0.23122E-03   -0.33094E-01  5568   0.509E-01    0.180E-01
DAV:   2    -0.292954842878E+04   -0.72315E-03   -0.87582E-03  6656   0.766E-02    0.862E-02
DAV:   3    -0.292954836926E+04    0.59518E-04   -0.30701E-04  6816   0.154E-02    0.624E-02
DAV:   4    -0.292954841172E+04   -0.42457E-04   -0.86591E-04  6928   0.127E-02    0.730E-02
DAV:   5    -0.292954834072E+04    0.71002E-04   -0.67680E-04  6112   0.115E-02    0.199E-02
DAV:   6    -0.292954833689E+04    0.38207E-05   -0.54414E-05  5408   0.618E-03
  65 F= -.29652506E+04 E0= -.29652506E+04  d E =-.404140E-02  mag=    -0.0000
       N       E                     dE             d eps       ncg     rms          rms(c)
DAV:   1    -0.292954982899E+04   -0.14883E-02   -0.54177E-01  5568   0.647E-01    0.236E-01
DAV:   2    -0.292955098657E+04   -0.11576E-02   -0.14179E-02  6688   0.969E-02    0.111E-01
DAV:   3    -0.292955090722E+04    0.79349E-04   -0.59918E-04  6880   0.190E-02    0.840E-02
DAV:   4    -0.292955095686E+04   -0.49639E-04   -0.13387E-03  6720   0.146E-02    0.899E-02
DAV:   5    -0.292955086489E+04    0.91971E-04   -0.97874E-04  6272   0.135E-02    0.276E-02
DAV:   6    -0.292955086033E+04    0.45660E-05   -0.92421E-05  5888   0.736E-03
  66 F= -.29652539E+04 E0= -.29652539E+04  d E =-.323474E-02  mag=    -0.0000
       N       E                     dE             d eps       ncg     rms          rms(c)
DAV:   1    -0.292955042876E+04    0.43613E-03   -0.39710E-01  5568   0.554E-01    0.204E-01
DAV:   2    -0.292955127849E+04   -0.84973E-03   -0.10404E-02  6720   0.830E-02    0.944E-02
DAV:   3    -0.292955122109E+04    0.57396E-04   -0.42716E-04  6816   0.163E-02    0.709E-02
DAV:   4    -0.292955126074E+04   -0.39649E-04   -0.99074E-04  6736   0.128E-02    0.778E-02
DAV:   5    -0.292955118974E+04    0.71002E-04   -0.73932E-04  6112   0.119E-02    0.233E-02
DAV:   6    -0.292955118598E+04    0.37611E-05   -0.67157E-05  5568   0.666E-03
  67 F= -.29652548E+04 E0= -.29652548E+04  d E =-.416963E-02  mag=    -0.0000
       N       E                     dE             d eps       ncg     rms          rms(c)
DAV:   1    -0.292955244551E+04   -0.12558E-02   -0.49572E-01  5568   0.619E-01    0.224E-01
DAV:   2    -0.292955352690E+04   -0.10814E-02   -0.13080E-02  6656   0.924E-02    0.110E-01
DAV:   3    -0.292955346865E+04    0.58248E-04   -0.70141E-04  6784   0.183E-02    0.834E-02
DAV:   4    -0.292955350371E+04   -0.35058E-04   -0.13758E-03  6784   0.138E-02    0.880E-02
DAV:   5    -0.292955341659E+04    0.87113E-04   -0.84618E-04  6176   0.132E-02    0.245E-02
DAV:   6    -0.292955341384E+04    0.27496E-05   -0.67793E-05  5728   0.668E-03
  68 F= -.29652578E+04 E0= -.29652578E+04  d E =-.295601E-02  mag=    -0.0000
       N       E                     dE             d eps       ncg     rms          rms(c)
DAV:   1    -0.292955260503E+04    0.81156E-03   -0.58965E-01  5568   0.675E-01    0.246E-01
DAV:   2    -0.292955389417E+04   -0.12891E-02   -0.15609E-02  6688   0.101E-01    0.119E-01
DAV:   3    -0.292955381991E+04    0.74263E-04   -0.76885E-04  6848   0.199E-02    0.895E-02
DAV:   4    -0.292955387095E+04   -0.51042E-04   -0.16293E-03  6624   0.152E-02    0.976E-02
DAV:   5    -0.292955375985E+04    0.11110E-03   -0.10538E-03  6112   0.147E-02    0.262E-02
DAV:   6    -0.292955375566E+04    0.41911E-05   -0.83050E-05  5968   0.765E-03
  69 F= -.29652589E+04 E0= -.29652589E+04  d E =-.409262E-02  mag=    -0.0000
       N       E                     dE             d eps       ncg     rms          rms(c)
DAV:   1    -0.292955472665E+04   -0.96680E-03   -0.68668E-01  5568   0.725E-01    0.260E-01
DAV:   2    -0.292955624389E+04   -0.15172E-02   -0.18085E-02  6688   0.108E-01    0.129E-01
DAV:   3    -0.292955617242E+04    0.71471E-04   -0.10895E-03  6784   0.217E-02    0.998E-02
DAV:   4    -0.292955620373E+04   -0.31309E-04   -0.19932E-03  6688   0.164E-02    0.102E-01
DAV:   5    -0.292955608544E+04    0.11829E-03   -0.10701E-03  6336   0.165E-02    0.249E-02
DAV:   6    -0.292955608423E+04    0.12048E-05   -0.82366E-05  6784   0.800E-03
  70 F= -.29652621E+04 E0= -.29652621E+04  d E =-.320043E-02  mag=    -0.0000
       N       E                     dE             d eps       ncg     rms          rms(c)
DAV:   1    -0.292955536647E+04    0.71897E-03   -0.46498E-01  5568   0.597E-01    0.216E-01
DAV:   2    -0.292955639554E+04   -0.10291E-02   -0.12268E-02  6688   0.892E-02    0.106E-01
DAV:   3    -0.292955634111E+04    0.54428E-04   -0.63984E-04  6784   0.177E-02    0.794E-02
DAV:   4    -0.292955637562E+04   -0.34507E-04   -0.13287E-03  6656   0.138E-02    0.864E-02
DAV:   5    -0.292955628792E+04    0.87695E-04   -0.78064E-04  6112   0.140E-02    0.205E-02
DAV:   6    -0.292955628684E+04    0.10882E-05   -0.58805E-05  5920   0.704E-03
  71 F= -.29652630E+04 E0= -.29652630E+04  d E =-.412066E-02  mag=    -0.0000
       N       E                     dE             d eps       ncg     rms          rms(c)
DAV:   1    -0.292955751692E+04   -0.12290E-02   -0.73719E-01  5568   0.741E-01    0.268E-01
DAV:   2    -0.292955912058E+04   -0.16037E-02   -0.19230E-02  6688   0.110E-01    0.134E-01
DAV:   3    -0.292955906660E+04    0.53987E-04   -0.14460E-03  6752   0.221E-02    0.109E-01
DAV:   4    -0.292955906282E+04    0.37811E-05   -0.21360E-03  6624   0.162E-02    0.100E-01
DAV:   5    -0.292955896400E+04    0.98816E-04   -0.99063E-04  6336   0.160E-02    0.263E-02
DAV:   6    -0.292955896421E+04   -0.20739E-06   -0.78138E-05  6560   0.751E-03
  72 F= -.29652666E+04 E0= -.29652666E+04  d E =-.359782E-02  mag=    -0.0000
       N       E                     dE             d eps       ncg     rms          rms(c)
DAV:   1    -0.292955780164E+04    0.11624E-02   -0.79336E-01  5568   0.769E-01    0.279E-01
DAV:   2    -0.292955952931E+04   -0.17277E-02   -0.20728E-02  6656   0.115E-01    0.139E-01
DAV:   3    -0.292955947087E+04    0.58436E-04   -0.15575E-03  6816   0.230E-02    0.113E-01
DAV:   4    -0.292955946523E+04    0.56436E-05   -0.23029E-03  6656   0.169E-02    0.104E-01
DAV:   5    -0.292955935663E+04    0.10859E-03   -0.10622E-03  6272   0.168E-02    0.273E-02
DAV:   6    -0.292955935615E+04    0.48417E-06   -0.85060E-05  6656   0.817E-03
  73 F= -.29652680E+04 E0= -.29652680E+04  d E =-.494500E-02  mag=    -0.0000
       N       E                     dE             d eps       ncg     rms          rms(c)
DAV:   1    -0.292956058729E+04   -0.12307E-02   -0.74138E-01  5568   0.737E-01    0.266E-01
DAV:   2    -0.292956221925E+04   -0.16320E-02   -0.19591E-02  6656   0.110E-01    0.138E-01
DAV:   3    -0.292956218362E+04    0.35637E-04   -0.17960E-03  6752   0.230E-02    0.118E-01
DAV:   4    -0.292956214084E+04    0.42778E-04   -0.21976E-03  6560   0.161E-02    0.971E-02
DAV:   5    -0.292956205404E+04    0.86800E-04   -0.88617E-04  6208   0.162E-02    0.283E-02
DAV:   6    -0.292956205360E+04    0.44302E-06   -0.78610E-05  6560   0.821E-03
  74 F= -.29652716E+04 E0= -.29652716E+04  d E =-.366550E-02  mag=    -0.0000
       N       E                     dE             d eps       ncg     rms          rms(c)
DAV:   1    -0.292955994230E+04    0.21117E-02   -0.13167E+00  5568   0.981E-01    0.356E-01
DAV:   2    -0.292956284418E+04   -0.29019E-02   -0.34920E-02  6624   0.147E-01    0.186E-01
DAV:   3    -0.292956278941E+04    0.54768E-04   -0.35142E-03  6784   0.313E-02    0.161E-01
DAV:   4    -0.292956267988E+04    0.10953E-03   -0.40137E-03  6592   0.215E-02    0.128E-01
DAV:   5    -0.292956252259E+04    0.15729E-03   -0.15033E-03  6400   0.221E-02    0.376E-02
DAV:   6    -0.292956251867E+04    0.39235E-05   -0.13914E-04  6752   0.116E-02    0.152E-02
DAV:   7    -0.292956252163E+04   -0.29631E-05   -0.26331E-05  5952   0.568E-03
  75 F= -.29652734E+04 E0= -.29652734E+04  d E =-.542472E-02  mag=     0.0000
       N       E                     dE             d eps       ncg     rms          rms(c)
DAV:   1    -0.292956359085E+04   -0.10722E-02   -0.75279E-01  5568   0.736E-01    0.268E-01
DAV:   2    -0.292956529601E+04   -0.17052E-02   -0.20166E-02  6656   0.108E-01    0.147E-01
DAV:   3    -0.292956527907E+04    0.16942E-04   -0.22237E-03  6768   0.229E-02    0.128E-01
DAV:   4    -0.292956520368E+04    0.75388E-04   -0.23531E-03  6496   0.159E-02    0.977E-02
DAV:   5    -0.292956512794E+04    0.75741E-04   -0.83564E-04  6144   0.157E-02    0.317E-02
DAV:   6    -0.292956512956E+04   -0.16202E-05   -0.83942E-05  6720   0.775E-03
  76 F= -.29652770E+04 E0= -.29652770E+04  d E =-.365534E-02  mag=     0.0000
       N       E                     dE             d eps       ncg     rms          rms(c)
DAV:   1    -0.292956404044E+04    0.10875E-02   -0.10743E+00  5568   0.879E-01    0.321E-01
DAV:   2    -0.292956646984E+04   -0.24294E-02   -0.28761E-02  6688   0.130E-01    0.175E-01
DAV:   3    -0.292956643966E+04    0.30180E-04   -0.30266E-03  6752   0.273E-02    0.151E-01
DAV:   4    -0.292956634399E+04    0.95675E-04   -0.33453E-03  6432   0.191E-02    0.118E-01
DAV:   5    -0.292956622733E+04    0.11666E-03   -0.12308E-03  6336   0.193E-02    0.369E-02
DAV:   6    -0.292956622768E+04   -0.35588E-06   -0.12211E-04  6784   0.967E-03    0.139E-02
DAV:   7    -0.292956623094E+04   -0.32579E-05   -0.16331E-05  5152   0.443E-03
  77 F= -.29652794E+04 E0= -.29652794E+04  d E =-.600887E-02  mag=     0.0000
       N       E                     dE             d eps       ncg     rms          rms(c)
DAV:   1    -0.292955346460E+04    0.12763E-01   -0.42940E+00  5568   0.176E+00    0.644E-01
DAV:   2    -0.292956317554E+04   -0.97109E-02   -0.11487E-01  6688   0.259E-01    0.356E-01
DAV:   3    -0.292956311780E+04    0.57740E-04   -0.13784E-02  6752   0.560E-02    0.315E-01
DAV:   4    -0.292956258428E+04    0.53352E-03   -0.13853E-02  6432   0.382E-02    0.233E-01
DAV:   5    -0.292956213261E+04    0.45167E-03   -0.46165E-03  6464   0.381E-02    0.762E-02
DAV:   6    -0.292956212536E+04    0.72522E-05   -0.47975E-04  6752   0.191E-02    0.284E-02
DAV:   7    -0.292956213026E+04   -0.49015E-05   -0.73195E-05  6752   0.897E-03
  78 F= -.29652778E+04 E0= -.29652778E+04  d E =-.441629E-02  mag=     0.0000
       N       E                     dE             d eps       ncg     rms          rms(c)
DAV:   1    -0.292956193784E+04    0.18752E-03   -0.19358E+00  5568   0.118E+00    0.421E-01
DAV:   2    -0.292956630215E+04   -0.43643E-02   -0.51392E-02  6656   0.174E-01    0.242E-01
DAV:   3    -0.292956632395E+04   -0.21806E-04   -0.74358E-03  6784   0.387E-02    0.220E-01
DAV:   4    -0.292956598969E+04    0.33427E-03   -0.65804E-03  6496   0.262E-02    0.150E-01
DAV:   5    -0.292956583292E+04    0.15677E-03   -0.19157E-03  6528   0.251E-02    0.500E-02
DAV:   6    -0.292956583434E+04   -0.14155E-05   -0.19765E-04  6752   0.115E-02    0.181E-02
DAV:   7    -0.292956583517E+04   -0.83545E-06   -0.26238E-05  5760   0.518E-03
  79 F= -.29652798E+04 E0= -.29652798E+04  d E =-.643712E-02  mag=     0.0000
       N       E                     dE             d eps       ncg     rms          rms(c)
DAV:   1    -0.292956717741E+04   -0.13431E-02   -0.72598E-01  5568   0.717E-01    0.263E-01
DAV:   2    -0.292956879587E+04   -0.16185E-02   -0.19263E-02  6592   0.105E-01    0.148E-01
DAV:   3    -0.292956879138E+04    0.44854E-05   -0.25415E-03  6720   0.229E-02    0.133E-01
DAV:   4    -0.292956868399E+04    0.10739E-03   -0.23667E-03  6432   0.156E-02    0.948E-02
DAV:   5    -0.292956861684E+04    0.67154E-04   -0.75423E-04  6272   0.153E-02    0.318E-02
DAV:   6    -0.292956861491E+04    0.19322E-05   -0.79471E-05  6560   0.740E-03
  80 F= -.29652836E+04 E0= -.29652836E+04  d E =-.381355E-02  mag=     0.0000
       N       E                     dE             d eps       ncg     rms          rms(c)
DAV:   1    -0.292956200391E+04    0.66129E-02   -0.38772E+00  5568   0.166E+00    0.621E-01
DAV:   2    -0.292957074066E+04   -0.87367E-02   -0.10353E-01  6624   0.244E-01    0.341E-01
DAV:   3    -0.292957071471E+04    0.25954E-04   -0.12229E-02  6784   0.516E-02    0.302E-01
DAV:   4    -0.292957025764E+04    0.45707E-03   -0.12404E-02  6464   0.357E-02    0.225E-01
DAV:   5    -0.292956987305E+04    0.38459E-03   -0.42603E-03  6464   0.351E-02    0.748E-02
DAV:   6    -0.292956986615E+04    0.68969E-05   -0.43838E-04  6752   0.173E-02    0.265E-02
DAV:   7    -0.292956986901E+04   -0.28618E-05   -0.60414E-05  6720   0.796E-03
  81 F= -.29652873E+04 E0= -.29652873E+04  d E =-.745987E-02  mag=    -0.0000
       N       E                     dE             d eps       ncg     rms          rms(c)
DAV:   1    -0.292957126272E+04   -0.13966E-02   -0.10896E+00  5568   0.879E-01    0.342E-01
DAV:   2    -0.292957369941E+04   -0.24367E-02   -0.29432E-02  6688   0.132E-01    0.179E-01
DAV:   3    -0.292957366813E+04    0.31283E-04   -0.30117E-03  6784   0.287E-02    0.154E-01
DAV:   4    -0.292957359330E+04    0.74823E-04   -0.35566E-03  6464   0.198E-02    0.125E-01
DAV:   5    -0.292957347152E+04    0.12179E-03   -0.13852E-03  6336   0.193E-02    0.391E-02
DAV:   6    -0.292957347649E+04   -0.49716E-05   -0.13226E-04  6752   0.102E-02    0.139E-02
DAV:   7    -0.292957348222E+04   -0.57344E-05   -0.19844E-05  5408   0.481E-03
  82 F= -.29652922E+04 E0= -.29652922E+04  d E =-.494507E-02  mag=    -0.0000
       N       E                     dE             d eps       ncg     rms          rms(c)
DAV:   1    -0.292957060638E+04    0.28701E-02   -0.16965E+00  5568   0.110E+00    0.427E-01
DAV:   2    -0.292957440052E+04   -0.37941E-02   -0.45900E-02  6688   0.164E-01    0.225E-01
DAV:   3    -0.292957435564E+04    0.44876E-04   -0.51364E-03  6784   0.366E-02    0.198E-01
DAV:   4    -0.292957419136E+04    0.16429E-03   -0.56674E-03  6432   0.249E-02    0.153E-01
DAV:   5    -0.292957399704E+04    0.19432E-03   -0.20420E-03  6304   0.245E-02    0.485E-02
DAV:   6    -0.292957399818E+04   -0.11447E-05   -0.20137E-04  6784   0.132E-02    0.171E-02
DAV:   7    -0.292957400383E+04   -0.56512E-05   -0.34860E-05  6464   0.621E-03
  83 F= -.29652944E+04 E0= -.29652944E+04  d E =-.713010E-02  mag=    -0.0000
       N       E                     dE             d eps       ncg     rms          rms(c)
DAV:   1    -0.292957469177E+04   -0.69359E-03   -0.13867E+00  5568   0.986E-01    0.393E-01
DAV:   2    -0.292957783699E+04   -0.31452E-02   -0.37652E-02  6688   0.147E-01    0.202E-01
DAV:   3    -0.292957776153E+04    0.75463E-04   -0.32493E-03  6816   0.304E-02    0.170E-01
DAV:   4    -0.292957771212E+04    0.49402E-04   -0.43133E-03  6560   0.218E-02    0.143E-01
DAV:   5    -0.292957753857E+04    0.17355E-03   -0.18867E-03  6400   0.225E-02    0.415E-02
DAV:   6    -0.292957753962E+04   -0.10477E-05   -0.17684E-04  6720   0.111E-02    0.148E-02
DAV:   7    -0.292957754562E+04   -0.59981E-05   -0.19860E-05  5376   0.475E-03
  84 F= -.29652998E+04 E0= -.29652998E+04  d E =-.537397E-02  mag=     0.0000
       N       E                     dE             d eps       ncg     rms          rms(c)
DAV:   1    -0.292957176657E+04    0.57731E-02   -0.25873E+00  5568   0.135E+00    0.539E-01
DAV:   2    -0.292957763845E+04   -0.58719E-02   -0.70495E-02  6720   0.200E-01    0.279E-01
DAV:   3    -0.292957753549E+04    0.10296E-03   -0.72393E-03  6784   0.430E-02    0.243E-01
DAV:   4    -0.292957731951E+04    0.21598E-03   -0.83562E-03  6464   0.300E-02    0.190E-01
DAV:   5    -0.292957701108E+04    0.30844E-03   -0.31679E-03  6368   0.310E-02    0.571E-02
DAV:   6    -0.292957700779E+04    0.32867E-05   -0.31231E-04  6720   0.158E-02    0.198E-02
DAV:   7    -0.292957701531E+04   -0.75193E-05   -0.44457E-05  6816   0.692E-03
  85 F= -.29653018E+04 E0= -.29653018E+04  d E =-.734734E-02  mag=    -0.0000
       N       E                     dE             d eps       ncg     rms          rms(c)
DAV:   1    -0.292957749593E+04   -0.48814E-03   -0.83177E-01  5632   0.750E-01    0.300E-01
DAV:   2    -0.292957943878E+04   -0.19428E-02   -0.22925E-02  6720   0.110E-01    0.160E-01
DAV:   3    -0.292957943351E+04    0.52655E-05   -0.24234E-03  6784   0.226E-02    0.141E-01
DAV:   4    -0.292957935267E+04    0.80844E-04   -0.25339E-03  6368   0.157E-02    0.106E-01
DAV:   5    -0.292957929023E+04    0.62436E-04   -0.92570E-04  6272   0.165E-02    0.335E-02
DAV:   6    -0.292957929617E+04   -0.59374E-05   -0.94136E-05  6592   0.798E-03
  86 F= -.29653055E+04 E0= -.29653055E+04  d E =-.376249E-02  mag=     0.0000
       N       E                     dE             d eps       ncg     rms          rms(c)
DAV:   1    -0.292956591350E+04    0.13377E-01   -0.65114E+00  5568   0.210E+00    0.856E-01
DAV:   2    -0.292958105213E+04   -0.15139E-01   -0.17880E-01  6688   0.308E-01    0.449E-01
DAV:   3    -0.292958090106E+04    0.15107E-03   -0.17274E-02  6816   0.617E-02    0.391E-01
DAV:   4    -0.292958037695E+04    0.52411E-03   -0.19107E-02  6528   0.435E-02    0.302E-01
DAV:   5    -0.292957976145E+04    0.61549E-03   -0.75442E-03  6496   0.456E-02    0.947E-02
DAV:   6    -0.292957974770E+04    0.13755E-04   -0.77043E-04  6752   0.217E-02    0.311E-02
DAV:   7    -0.292957976208E+04   -0.14375E-04   -0.88954E-05  6784   0.940E-03    0.217E-02
DAV:   8    -0.292957977700E+04   -0.14923E-04   -0.17081E-05  5312   0.425E-03    0.994E-03
DAV:   9    -0.292957979906E+04   -0.22057E-04   -0.51109E-06  5056   0.390E-03    0.518E-03
DAV:  10    -0.292957980969E+04   -0.10632E-04   -0.32113E-06  4864   0.243E-03    0.411E-03
DAV:  11    -0.292957981945E+04   -0.97626E-05   -0.12666E-06  4768   0.184E-03
  87 F= -.29653102E+04 E0= -.29653102E+04  d E =-.843398E-02  mag=     0.0000
       N       E                     dE             d eps       ncg     rms          rms(c)
DAV:   1    -0.292958291555E+04   -0.31059E-02   -0.12866E+00  5568   0.939E-01    0.392E-01
DAV:   2    -0.292958595247E+04   -0.30369E-02   -0.37423E-02  6688   0.145E-01    0.213E-01
DAV:   3    -0.292958596973E+04   -0.17265E-04   -0.58533E-03  6752   0.347E-02    0.201E-01
DAV:   4    -0.292958568742E+04    0.28231E-03   -0.50649E-03  6464   0.224E-02    0.132E-01
DAV:   5    -0.292958556249E+04    0.12494E-03   -0.14089E-03  6528   0.222E-02    0.453E-02
DAV:   6    -0.292958556213E+04    0.36322E-06   -0.15158E-04  6784   0.119E-02    0.161E-02
DAV:   7    -0.292958556666E+04   -0.45316E-05   -0.30818E-05  6240   0.568E-03
  88 F= -.29653177E+04 E0= -.29653177E+04  d E =-.748428E-02  mag=     0.0000
       N       E                     dE             d eps       ncg     rms          rms(c)
DAV:   1    -0.292958149003E+04    0.40721E-02   -0.25713E+00  5568   0.133E+00    0.560E-01
DAV:   2    -0.292958758872E+04   -0.60987E-02   -0.75227E-02  6656   0.205E-01    0.303E-01
DAV:   3    -0.292958766165E+04   -0.72928E-04   -0.12437E-02  6752   0.502E-02    0.290E-01
DAV:   4    -0.292958704048E+04    0.62116E-03   -0.10470E-02  6432   0.322E-02    0.187E-01
DAV:   5    -0.292958677796E+04    0.26253E-03   -0.27564E-03  6528   0.317E-02    0.654E-02
DAV:   6    -0.292958677047E+04    0.74914E-05   -0.30603E-04  6752   0.176E-02    0.234E-02
DAV:   7    -0.292958677609E+04   -0.56204E-05   -0.69995E-05  6784   0.867E-03
  89 F= -.29653213E+04 E0= -.29653213E+04  d E =-.111511E-01  mag=    -0.0000
       N       E                     dE             d eps       ncg     rms          rms(c)
DAV:   1    -0.292958791100E+04   -0.11405E-02   -0.14277E+00  5568   0.972E-01    0.399E-01
DAV:   2    -0.292959138208E+04   -0.34711E-02   -0.41609E-02  6656   0.146E-01    0.239E-01
DAV:   3    -0.292959153563E+04   -0.15354E-03   -0.94898E-03  6720   0.365E-02    0.235E-01
DAV:   4    -0.292959103594E+04    0.49969E-03   -0.64332E-03  6432   0.235E-02    0.135E-01
DAV:   5    -0.292959095256E+04    0.83381E-04   -0.13231E-03  6432   0.210E-02    0.511E-02
DAV:   6    -0.292959095707E+04   -0.45126E-05   -0.15458E-04  6752   0.104E-02    0.178E-02
DAV:   7    -0.292959096352E+04   -0.64504E-05   -0.25916E-05  5856   0.501E-03
  90 F= -.29653276E+04 E0= -.29653276E+04  d E =-.625934E-02  mag=     0.0000
       N       E                     dE             d eps       ncg     rms          rms(c)
DAV:   1    -0.292958038367E+04    0.10573E-01   -0.54597E+00  5568   0.190E+00    0.790E-01
DAV:   2    -0.292959372182E+04   -0.13338E-01   -0.16018E-01  6592   0.285E-01    0.476E-01
DAV:   3    -0.292959439951E+04   -0.67770E-03   -0.39416E-02  6752   0.731E-02    0.475E-01
DAV:   4    -0.292959228163E+04    0.21179E-02   -0.25787E-02  6496   0.464E-02    0.266E-01
DAV:   5    -0.292959190631E+04    0.37531E-03   -0.49982E-03  6496   0.412E-02    0.101E-01
DAV:   6    -0.292959189791E+04    0.84085E-05   -0.61062E-04  6816   0.206E-02    0.341E-02
DAV:   7    -0.292959190704E+04   -0.91391E-05   -0.10411E-04  6752   0.975E-03    0.212E-02
DAV:   8    -0.292959191785E+04   -0.10804E-04   -0.11188E-05  5280   0.326E-03    0.134E-02
DAV:   9    -0.292959193909E+04   -0.21241E-04   -0.80951E-06  5200   0.342E-03    0.670E-03
DAV:  10    -0.292959195256E+04   -0.13473E-04   -0.28746E-06  4992   0.241E-03    0.348E-03
DAV:  11    -0.292959196350E+04   -0.10940E-04   -0.18862E-06  4800   0.189E-03    0.244E-03
DAV:  12    -0.292959197564E+04   -0.12139E-04   -0.60029E-07  4848   0.131E-03    0.151E-03
DAV:  13    -0.292959199114E+04   -0.15494E-04   -0.72822E-07  4736   0.174E-03    0.868E-04
DAV:  14    -0.292959199682E+04   -0.56861E-05   -0.62619E-07  4864   0.871E-04
  91 F= -.29653327E+04 E0= -.29653327E+04  d E =-.113482E-01  mag=     0.0000
       N       E                     dE             d eps       ncg     rms          rms(c)
DAV:   1    -0.292959385323E+04   -0.18621E-02   -0.26750E+00  5568   0.134E+00    0.552E-01
DAV:   2    -0.292960032006E+04   -0.64668E-02   -0.79398E-02  6720   0.205E-01    0.340E-01
DAV:   3    -0.292960076029E+04   -0.44023E-03   -0.24618E-02  6752   0.575E-02    0.355E-01
DAV:   4    -0.292959938185E+04    0.13784E-02   -0.15408E-02  6560   0.366E-02    0.180E-01
DAV:   5    -0.292959915361E+04    0.22824E-03   -0.24047E-03  6496   0.305E-02    0.695E-02
DAV:   6    -0.292959914267E+04    0.10939E-04   -0.32695E-04  6848   0.177E-02    0.228E-02
DAV:   7    -0.292959914405E+04   -0.13789E-05   -0.59499E-05  6800   0.769E-03
  92 F= -.29653427E+04 E0= -.29653427E+04  d E =-.100227E-01  mag=    -0.0000
       N       E                     dE             d eps       ncg     rms          rms(c)
DAV:   1    -0.292959490522E+04    0.42374E-02   -0.20480E+00  5568   0.117E+00    0.485E-01
DAV:   2    -0.292959987326E+04   -0.49680E-02   -0.61072E-02  6720   0.180E-01    0.298E-01
DAV:   3    -0.292960023629E+04   -0.36303E-03   -0.19272E-02  6720   0.512E-02    0.314E-01
DAV:   4    -0.292959914913E+04    0.10872E-02   -0.11977E-02  6592   0.325E-02    0.157E-01
DAV:   5    -0.292959897643E+04    0.17270E-03   -0.18053E-03  6464   0.274E-02    0.617E-02
DAV:   6    -0.292959897156E+04    0.48688E-05   -0.25528E-04  6800   0.168E-02    0.210E-02
DAV:   7    -0.292959897648E+04   -0.49205E-05   -0.53971E-05  6736   0.753E-03
  93 F= -.29653451E+04 E0= -.29653451E+04  d E =-.123731E-01  mag=    -0.0000
       N       E                     dE             d eps       ncg     rms          rms(c)
DAV:   1    -0.292959833859E+04    0.63298E-03   -0.35232E+00  5568   0.152E+00    0.598E-01
DAV:   2    -0.292960661804E+04   -0.82795E-02   -0.10080E-01  6656   0.228E-01    0.396E-01
DAV:   3    -0.292960715639E+04   -0.53835E-03   -0.31559E-02  6784   0.633E-02    0.393E-01
DAV:   4    -0.292960552021E+04    0.16362E-02   -0.19054E-02  6592   0.396E-02    0.207E-01
DAV:   5    -0.292960528900E+04    0.23121E-03   -0.32747E-03  6560   0.324E-02    0.809E-02
DAV:   6    -0.292960528820E+04    0.80437E-06   -0.37822E-04  6784   0.168E-02    0.276E-02
DAV:   7    -0.292960529687E+04   -0.86722E-05   -0.71722E-05  6784   0.807E-03
  94 F= -.29653543E+04 E0= -.29653543E+04  d E =-.924431E-02  mag=    -0.0000
       N       E                     dE             d eps       ncg     rms          rms(c)
DAV:   1    -0.292959176729E+04    0.13521E-01   -0.60750E+00  5568   0.199E+00    0.792E-01
DAV:   2    -0.292960608893E+04   -0.14322E-01   -0.17457E-01  6688   0.299E-01    0.524E-01
DAV:   3    -0.292960702701E+04   -0.93808E-03   -0.55177E-02  6784   0.837E-02    0.520E-01
DAV:   4    -0.292960416206E+04    0.28650E-02   -0.32992E-02  6560   0.525E-02    0.274E-01
DAV:   5    -0.292960373969E+04    0.42237E-03   -0.55765E-03  6592   0.430E-02    0.107E-01
DAV:   6    -0.292960373335E+04    0.63449E-05   -0.64965E-04  6784   0.227E-02    0.366E-02
DAV:   7    -0.292960374565E+04   -0.12298E-04   -0.13323E-04  6752   0.111E-02    0.218E-02
DAV:   8    -0.292960375793E+04   -0.12287E-04   -0.11764E-05  5312   0.358E-03    0.131E-02
DAV:   9    -0.292960378609E+04   -0.28157E-04   -0.10038E-05  5152   0.390E-03    0.658E-03
DAV:  10    -0.292960380346E+04   -0.17372E-04   -0.32710E-06  4992   0.278E-03    0.360E-03
DAV:  11    -0.292960381922E+04   -0.15759E-04   -0.22376E-06  4768   0.239E-03    0.240E-03
DAV:  12    -0.292960383390E+04   -0.14681E-04   -0.10724E-06  4768   0.159E-03    0.180E-03
DAV:  13    -0.292960385120E+04   -0.17292E-04   -0.76680E-07  4800   0.169E-03    0.838E-04
DAV:  14    -0.292960385984E+04   -0.86463E-05   -0.70988E-07  4832   0.108E-03
  95 F= -.29653567E+04 E0= -.29653567E+04  d E =-.116499E-01  mag=    -0.0000
       N       E                     dE             d eps       ncg     rms          rms(c)
DAV:   1    -0.292960444242E+04   -0.59122E-03   -0.23052E+00  5568   0.123E+00    0.478E-01
DAV:   2    -0.292960988182E+04   -0.54394E-02   -0.65571E-02  6656   0.183E-01    0.312E-01
DAV:   3    -0.292961016838E+04   -0.28656E-03   -0.18354E-02  6816   0.482E-02    0.306E-01
DAV:   4    -0.292960922155E+04    0.94683E-03   -0.11363E-02  6496   0.305E-02    0.169E-01
DAV:   5    -0.292960906553E+04    0.15603E-03   -0.20936E-03  6496   0.263E-02    0.638E-02
DAV:   6    -0.292960906094E+04    0.45878E-05   -0.24661E-04  6784   0.129E-02    0.216E-02
DAV:   7    -0.292960906230E+04   -0.13605E-05   -0.41463E-05  6464   0.606E-03
  96 F= -.29653643E+04 E0= -.29653643E+04  d E =-.756036E-02  mag=    -0.0000
       N       E                     dE             d eps       ncg     rms          rms(c)
DAV:   1    -0.292960189862E+04    0.71623E-02   -0.45161E+00  5568   0.172E+00    0.677E-01
DAV:   2    -0.292961261224E+04   -0.10714E-01   -0.12907E-01  6656   0.257E-01    0.439E-01
DAV:   3    -0.292961321088E+04   -0.59864E-03   -0.36329E-02  6816   0.681E-02    0.432E-01
[...]
DAV:   1    -0.293026673555E+04    0.35117E-05   -0.55199E-04  6496   0.216E-02    0.893E-03
DAV:   2    -0.293026673707E+04   -0.15218E-05   -0.17011E-05  5408   0.355E-03    0.525E-03
DAV:   3    -0.293026673758E+04   -0.50687E-06   -0.97820E-06  4704   0.152E-03    0.688E-03
DAV:   4    -0.293026673711E+04    0.46584E-06   -0.55441E-06  4768   0.998E-04    0.225E-03
DAV:   5    -0.293026673739E+04   -0.28312E-06   -0.46575E-07  4576   0.927E-04
 460 F= -.29663699E+04 E0= -.29663699E+04  d E =-.711040E-03  mag=    -0.0000
       N       E                     dE             d eps       ncg     rms          rms(c)
DAV:   1    -0.293026694071E+04   -0.20360E-03   -0.27538E-01  5632   0.476E-01    0.136E-01
DAV:   2    -0.293026749624E+04   -0.55553E-03   -0.64724E-03  6624   0.680E-02    0.629E-02
DAV:   3    -0.293026745594E+04    0.40293E-04   -0.14520E-04  6816   0.117E-02    0.427E-02
DAV:   4    -0.293026747883E+04   -0.22883E-04   -0.41794E-04  6944   0.109E-02    0.551E-02
DAV:   5    -0.293026744016E+04    0.38665E-04   -0.39258E-04  6336   0.832E-03    0.143E-02
DAV:   6    -0.293026743744E+04    0.27231E-05   -0.21253E-05  5152   0.350E-03
 461 F= -.29663706E+04 E0= -.29663706E+04  d E =-.773414E-03  mag=    -0.0000
       N       E                     dE             d eps       ncg     rms          rms(c)
DAV:   1    -0.293026739136E+04    0.48799E-04   -0.32428E-02  5632   0.164E-01    0.484E-02
DAV:   2    -0.293026745823E+04   -0.66871E-04   -0.77550E-04  6784   0.235E-02    0.212E-02
DAV:   3    -0.293026745335E+04    0.48794E-05   -0.13257E-05  5056   0.416E-03    0.140E-02
DAV:   4    -0.293026745552E+04   -0.21615E-05   -0.42780E-05  5024   0.451E-03    0.177E-02
DAV:   5    -0.293026745202E+04    0.35005E-05   -0.38428E-05  4832   0.318E-03
 462 F= -.29663707E+04 E0= -.29663707E+04  d E =-.813190E-03  mag=    -0.0000
       N       E                     dE             d eps       ncg     rms          rms(c)
DAV:   1    -0.293026769982E+04   -0.24430E-03   -0.21643E-01  5568   0.422E-01    0.122E-01
DAV:   2    -0.293026813669E+04   -0.43687E-03   -0.51492E-03  6656   0.606E-02    0.565E-02
DAV:   3    -0.293026810619E+04    0.30496E-04   -0.13845E-04  6848   0.108E-02    0.397E-02
DAV:   4    -0.293026812506E+04   -0.18870E-04   -0.36809E-04  6560   0.903E-03    0.503E-02
DAV:   5    -0.293026809240E+04    0.32657E-04   -0.31317E-04  5760   0.799E-03    0.125E-02
DAV:   6    -0.293026809077E+04    0.16359E-05   -0.19939E-05  5120   0.369E-03
 463 F= -.29663714E+04 E0= -.29663714E+04  d E =-.733314E-03  mag=    -0.0000
       N       E                     dE             d eps       ncg     rms          rms(c)
DAV:   1    -0.293026806407E+04    0.28338E-04   -0.37042E-02  5632   0.175E-01    0.518E-02
DAV:   2    -0.293026813983E+04   -0.75759E-04   -0.89213E-04  6720   0.252E-02    0.229E-02
DAV:   3    -0.293026813408E+04    0.57445E-05   -0.14372E-05  5120   0.446E-03    0.149E-02
DAV:   4    -0.293026813293E+04    0.11502E-05   -0.21056E-05  4992   0.509E-03    0.992E-03
DAV:   5    -0.293026813295E+04   -0.14552E-07   -0.21658E-05  4768   0.282E-03
 464 F= -.29663715E+04 E0= -.29663715E+04  d E =-.814633E-03  mag=    -0.0000
       N       E                     dE             d eps       ncg     rms          rms(c)
DAV:   1    -0.293026848326E+04   -0.35033E-03   -0.14498E-01  5632   0.347E-01    0.109E-01
DAV:   2    -0.293026878151E+04   -0.29824E-03   -0.35869E-03  6720   0.509E-02    0.486E-02
DAV:   3    -0.293026876072E+04    0.20787E-04   -0.16297E-04  6784   0.996E-03    0.378E-02
DAV:   4    -0.293026876622E+04   -0.55021E-05   -0.30839E-04  5760   0.714E-03    0.401E-02
DAV:   5    -0.293026874516E+04    0.21061E-04   -0.18194E-04  5632   0.723E-03    0.939E-03
DAV:   6    -0.293026874485E+04    0.31147E-06   -0.13776E-05  5056   0.340E-03
 465 F= -.29663722E+04 E0= -.29663722E+04  d E =-.664584E-03  mag=    -0.0000
       N       E                     dE             d eps       ncg     rms          rms(c)
DAV:   1    -0.293026875072E+04   -0.55550E-05   -0.16046E-02  5632   0.115E-01    0.376E-02
DAV:   2    -0.293026878433E+04   -0.33609E-04   -0.40288E-04  6784   0.170E-02    0.157E-02
DAV:   3    -0.293026878141E+04    0.29149E-05   -0.65925E-06  4896   0.314E-03    0.100E-02
DAV:   4    -0.293026878096E+04    0.45035E-06   -0.10175E-05  4704   0.361E-03    0.637E-03
DAV:   5    -0.293026878103E+04   -0.67521E-07   -0.96418E-06  4800   0.196E-03
 466 F= -.29663722E+04 E0= -.29663722E+04  d E =-.718285E-03  mag=    -0.0000
       N       E                     dE             d eps       ncg     rms          rms(c)
DAV:   1    -0.293026904887E+04   -0.26791E-03   -0.16090E-01  5632   0.364E-01    0.110E-01
DAV:   2    -0.293026937580E+04   -0.32692E-03   -0.38880E-03  6688   0.526E-02    0.524E-02
DAV:   3    -0.293026936268E+04    0.13116E-04   -0.30696E-04  6656   0.109E-02    0.465E-02
DAV:   4    -0.293026935198E+04    0.10703E-04   -0.35323E-04  5504   0.710E-03    0.362E-02
DAV:   5    -0.293026933590E+04    0.16074E-04   -0.13510E-04  6080   0.762E-03    0.999E-03
DAV:   6    -0.293026933571E+04    0.19651E-06   -0.13017E-05  5056   0.364E-03
 467 F= -.29663729E+04 E0= -.29663729E+04  d E =-.689402E-03  mag=    -0.0000
       N       E                     dE             d eps       ncg     rms          rms(c)
DAV:   1    -0.293026930591E+04    0.29998E-04   -0.36783E-02  5632   0.174E-01    0.538E-02
DAV:   2    -0.293026938127E+04   -0.75368E-04   -0.89554E-04  6688   0.253E-02    0.241E-02
DAV:   3    -0.293026937676E+04    0.45093E-05   -0.40715E-05  5408   0.496E-03    0.191E-02
DAV:   4    -0.293026937759E+04   -0.82195E-06   -0.74082E-05  4832   0.373E-03    0.197E-02
DAV:   5    -0.293026937276E+04    0.48216E-05   -0.40656E-05  4704   0.421E-03
 468 F= -.29663730E+04 E0= -.29663730E+04  d E =-.790838E-03  mag=    -0.0000
       N       E                     dE             d eps       ncg     rms          rms(c)
DAV:   1    -0.293026948581E+04   -0.10823E-03   -0.17734E-01  5632   0.380E-01    0.114E-01
DAV:   2    -0.293026985021E+04   -0.36440E-03   -0.43197E-03  6528   0.551E-02    0.563E-02
DAV:   3    -0.293026984395E+04    0.62627E-05   -0.47034E-04  6720   0.118E-02    0.541E-02
DAV:   4    -0.293026982054E+04    0.23411E-04   -0.44031E-04  5632   0.757E-03    0.360E-02
DAV:   5    -0.293026980502E+04    0.15519E-04   -0.12941E-04  6112   0.791E-03    0.105E-02
DAV:   6    -0.293026980495E+04    0.71595E-07   -0.14052E-05  5184   0.381E-03
 469 F= -.29663737E+04 E0= -.29663737E+04  d E =-.706395E-03  mag=    -0.0000
       N       E                     dE             d eps       ncg     rms          rms(c)
DAV:   1    -0.293026970232E+04    0.10270E-03   -0.36140E-02  5632   0.172E-01    0.525E-02
DAV:   2    -0.293026977728E+04   -0.74967E-04   -0.88602E-04  6752   0.250E-02    0.242E-02
DAV:   3    -0.293026977441E+04    0.28774E-05   -0.61950E-05  5568   0.503E-03    0.213E-02
DAV:   4    -0.293026977250E+04    0.19044E-05   -0.77993E-05  4896   0.355E-03    0.176E-02
DAV:   5    -0.293026976874E+04    0.37653E-05   -0.29879E-05  4800   0.412E-03
 470 F= -.29663738E+04 E0= -.29663738E+04  d E =-.793866E-03  mag=    -0.0000
       N       E                     dE             d eps       ncg     rms          rms(c)
DAV:   1    -0.293026983819E+04   -0.65690E-04   -0.16612E-01  5632   0.368E-01    0.109E-01
DAV:   2    -0.293027017782E+04   -0.33962E-03   -0.40061E-03  6624   0.529E-02    0.545E-02
DAV:   3    -0.293027017199E+04    0.58294E-05   -0.44025E-04  6688   0.113E-02    0.519E-02
DAV:   4    -0.293027014987E+04    0.22119E-04   -0.40347E-04  5600   0.725E-03    0.347E-02
DAV:   5    -0.293027013568E+04    0.14190E-04   -0.11623E-04  6144   0.765E-03    0.974E-03
DAV:   6    -0.293027013580E+04   -0.12270E-06   -0.12412E-05  5056   0.360E-03
 471 F= -.29663745E+04 E0= -.29663745E+04  d E =-.670088E-03  mag=    -0.0000
       N       E                     dE             d eps       ncg     rms          rms(c)
DAV:   1    -0.293027001931E+04    0.11636E-03   -0.40517E-02  5632   0.182E-01    0.544E-02
DAV:   2    -0.293027010277E+04   -0.83459E-04   -0.97833E-04  6688   0.262E-02    0.253E-02
DAV:   3    -0.293027009900E+04    0.37715E-05   -0.57887E-05  5440   0.509E-03    0.212E-02
DAV:   4    -0.293027009801E+04    0.99256E-06   -0.81804E-05  4928   0.368E-03    0.192E-02
DAV:   5    -0.293027009367E+04    0.43360E-05   -0.35632E-05  4736   0.427E-03
 472 F= -.29663746E+04 E0= -.29663746E+04  d E =-.777471E-03  mag=    -0.0000
       N       E                     dE             d eps       ncg     rms          rms(c)
DAV:   1    -0.293027024567E+04   -0.14766E-03   -0.14035E-01  5632   0.340E-01    0.103E-01
DAV:   2    -0.293027053379E+04   -0.28812E-03   -0.34178E-03  6624   0.491E-02    0.495E-02
DAV:   3    -0.293027052433E+04    0.94569E-05   -0.31220E-04  6688   0.103E-02    0.447E-02
DAV:   4    -0.293027051157E+04    0.12760E-04   -0.34028E-04  5600   0.680E-03    0.341E-02
DAV:   5    -0.293027049705E+04    0.14522E-04   -0.11286E-04  5888   0.716E-03    0.834E-03
DAV:   6    -0.293027049710E+04   -0.50466E-07   -0.10664E-05  5024   0.343E-03
 473 F= -.29663752E+04 E0= -.29663752E+04  d E =-.650556E-03  mag=    -0.0000
       N       E                     dE             d eps       ncg     rms          rms(c)
DAV:   1    -0.293027041866E+04    0.78385E-04   -0.29175E-02  5632   0.155E-01    0.476E-02
DAV:   2    -0.293027047906E+04   -0.60401E-04   -0.71238E-04  6752   0.225E-02    0.211E-02
DAV:   3    -0.293027047498E+04    0.40876E-05   -0.26964E-05  5152   0.426E-03    0.158E-02
DAV:   4    -0.293027047633E+04   -0.13499E-05   -0.58388E-05  4832   0.340E-03    0.184E-02
DAV:   5    -0.293027047210E+04    0.42259E-05   -0.34972E-05  4720   0.374E-03
 474 F= -.29663753E+04 E0= -.29663753E+04  d E =-.738104E-03  mag=    -0.0000
       N       E                     dE             d eps       ncg     rms          rms(c)
DAV:   1    -0.293027054380E+04   -0.67470E-04   -0.16147E-01  5632   0.365E-01    0.109E-01
DAV:   2    -0.293027087355E+04   -0.32975E-03   -0.39207E-03  6752   0.528E-02    0.522E-02
DAV:   3    -0.293027085802E+04    0.15530E-04   -0.27762E-04  6784   0.107E-02    0.436E-02
DAV:   4    -0.293027085227E+04    0.57492E-05   -0.36868E-04  5792   0.727E-03    0.395E-02
DAV:   5    -0.293027083257E+04    0.19697E-04   -0.15339E-04  6048   0.767E-03    0.901E-03
DAV:   6    -0.293027083244E+04    0.12980E-06   -0.12649E-05  5088   0.362E-03
 475 F= -.29663759E+04 E0= -.29663759E+04  d E =-.621055E-03  mag=    -0.0000
       N       E                     dE             d eps       ncg     rms          rms(c)
DAV:   1    -0.293027075072E+04    0.81845E-04   -0.22024E-02  5632   0.135E-01    0.413E-02
DAV:   2    -0.293027079645E+04   -0.45723E-04   -0.54037E-04  6816   0.196E-02    0.182E-02
DAV:   3    -0.293027079312E+04    0.33284E-05   -0.15501E-05  4960   0.367E-03    0.128E-02
DAV:   4    -0.293027079504E+04   -0.19236E-05   -0.43653E-05  4864   0.317E-03    0.172E-02
DAV:   5    -0.293027079143E+04    0.36146E-05   -0.30995E-05  4736   0.322E-03
 476 F= -.29663760E+04 E0= -.29663760E+04  d E =-.676222E-03  mag=    -0.0000
       N       E                     dE             d eps       ncg     rms          rms(c)
DAV:   1    -0.293027083250E+04   -0.37461E-04   -0.15209E-01  5632   0.352E-01    0.100E-01
DAV:   2    -0.293027114429E+04   -0.31178E-03   -0.36346E-03  6560   0.504E-02    0.499E-02
DAV:   3    -0.293027113118E+04    0.13107E-04   -0.24256E-04  6688   0.956E-03    0.412E-02
DAV:   4    -0.293027112624E+04    0.49416E-05   -0.32365E-04  5664   0.668E-03    0.377E-02
DAV:   5    -0.293027110894E+04    0.17300E-04   -0.14031E-04  6048   0.746E-03    0.841E-03
DAV:   6    -0.293027110894E+04    0.19209E-08   -0.11716E-05  5088   0.326E-03
 477 F= -.29663766E+04 E0= -.29663766E+04  d E =-.584275E-03  mag=    -0.0000
       N       E                     dE             d eps       ncg     rms          rms(c)
DAV:   1    -0.293027096204E+04    0.14690E-03   -0.51795E-02  5632   0.206E-01    0.592E-02
DAV:   2    -0.293027106902E+04   -0.10698E-03   -0.12446E-03  6720   0.295E-02    0.280E-02
DAV:   3    -0.293027106284E+04    0.61769E-05   -0.49714E-05  5568   0.527E-03    0.209E-02
DAV:   4    -0.293027106486E+04   -0.20228E-05   -0.10099E-04  5120   0.416E-03    0.242E-02
DAV:   5    -0.293027105750E+04    0.73686E-05   -0.59965E-05  4896   0.468E-03
 478 F= -.29663767E+04 E0= -.29663767E+04  d E =-.688442E-03  mag=    -0.0000
       N       E                     dE             d eps       ncg     rms          rms(c)
DAV:   1    -0.293027116388E+04   -0.99020E-04   -0.17196E-01  5568   0.374E-01    0.111E-01
DAV:   2    -0.293027151981E+04   -0.35593E-03   -0.41930E-03  6656   0.542E-02    0.538E-02
DAV:   3    -0.293027150433E+04    0.15478E-04   -0.30140E-04  6752   0.108E-02    0.454E-02
DAV:   4    -0.293027149657E+04    0.77579E-05   -0.38651E-04  5600   0.741E-03    0.399E-02
DAV:   5    -0.293027147623E+04    0.20341E-04   -0.15653E-04  5984   0.808E-03    0.925E-03
DAV:   6    -0.293027147607E+04    0.16182E-06   -0.13973E-05  5248   0.389E-03
 479 F= -.29663773E+04 E0= -.29663773E+04  d E =-.655742E-03  mag=    -0.0000
       N       E                     dE             d eps       ncg     rms          rms(c)
DAV:   1    -0.293027139908E+04    0.77157E-04   -0.31775E-02  5632   0.161E-01    0.487E-02
DAV:   2    -0.293027146543E+04   -0.66350E-04   -0.78078E-04  6720   0.234E-02    0.219E-02
DAV:   3    -0.293027146081E+04    0.46151E-05   -0.24986E-05  5184   0.438E-03    0.158E-02
DAV:   4    -0.293027146283E+04   -0.20154E-05   -0.62027E-05  4832   0.366E-03    0.200E-02
DAV:   5    -0.293027145769E+04    0.51333E-05   -0.41339E-05  4736   0.405E-03
 480 F= -.29663774E+04 E0= -.29663774E+04  d E =-.739196E-03  mag=    -0.0000
       N       E                     dE             d eps       ncg     rms          rms(c)
DAV:   1    -0.293027158722E+04   -0.12440E-03   -0.19866E-01  5568   0.401E-01    0.113E-01
DAV:   2    -0.293027200109E+04   -0.41387E-03   -0.48300E-03  6592   0.578E-02    0.579E-02
DAV:   3    -0.293027198722E+04    0.13878E-04   -0.37982E-04  6816   0.115E-02    0.502E-02
DAV:   4    -0.293027197351E+04    0.13706E-04   -0.41989E-04  5920   0.757E-03    0.403E-02
DAV:   5    -0.293027195372E+04    0.19793E-04   -0.15845E-04  6208   0.834E-03    0.105E-02
DAV:   6    -0.293027195347E+04    0.24476E-06   -0.15123E-05  5248   0.381E-03
 481 F= -.29663781E+04 E0= -.29663781E+04  d E =-.665500E-03  mag=    -0.0000
       N       E                     dE             d eps       ncg     rms          rms(c)
DAV:   1    -0.293027189237E+04    0.61345E-04   -0.26035E-02  5632   0.145E-01    0.421E-02
DAV:   2    -0.293027194701E+04   -0.54643E-04   -0.63917E-04  6816   0.211E-02    0.198E-02
DAV:   3    -0.293027194372E+04    0.32909E-05   -0.22417E-05  5024   0.384E-03    0.148E-02
DAV:   4    -0.293027194476E+04   -0.10359E-05   -0.47555E-05  4800   0.307E-03    0.170E-02
DAV:   5    -0.293027194114E+04    0.36169E-05   -0.29898E-05  4704   0.352E-03
 482 F= -.29663781E+04 E0= -.29663781E+04  d E =-.714551E-03  mag=    -0.0000
       N       E                     dE             d eps       ncg     rms          rms(c)
DAV:   1    -0.293027198350E+04   -0.38743E-04   -0.18742E-01  5568   0.389E-01    0.113E-01
DAV:   2    -0.293027237538E+04   -0.39188E-03   -0.45861E-03  6688   0.563E-02    0.568E-02
DAV:   3    -0.293027236307E+04    0.12311E-04   -0.39464E-04  6656   0.116E-02    0.510E-02
DAV:   4    -0.293027234636E+04    0.16714E-04   -0.40882E-04  5792   0.758E-03    0.382E-02
DAV:   5    -0.293027232836E+04    0.17996E-04   -0.14186E-04  6080   0.867E-03    0.101E-02
DAV:   6    -0.293027232817E+04    0.19523E-06   -0.15076E-05  5248   0.408E-03
 483 F= -.29663787E+04 E0= -.29663787E+04  d E =-.583765E-03  mag=    -0.0000
       N       E                     dE             d eps       ncg     rms          rms(c)
DAV:   1    -0.293027226531E+04    0.63047E-04   -0.19488E-02  5632   0.125E-01    0.375E-02
DAV:   2    -0.293027230667E+04   -0.41358E-04   -0.48298E-04  6752   0.183E-02    0.171E-02
DAV:   3    -0.293027230398E+04    0.26901E-05   -0.14929E-05  5056   0.345E-03    0.126E-02
DAV:   4    -0.293027230517E+04   -0.11840E-05   -0.36426E-05  4800   0.291E-03    0.152E-02
DAV:   5    -0.293027230234E+04    0.28215E-05   -0.24170E-05  4736   0.340E-03
 484 F= -.29663787E+04 E0= -.29663787E+04  d E =-.621302E-03  mag=    -0.0000
       N       E                     dE             d eps       ncg     rms          rms(c)
DAV:   1    -0.293027239699E+04   -0.91823E-04   -0.11911E-01  5632   0.314E-01    0.977E-02
DAV:   2    -0.293027264780E+04   -0.25081E-03   -0.29975E-03  6656   0.463E-02    0.472E-02
DAV:   3    -0.293027263877E+04    0.90225E-05   -0.28987E-04  6656   0.100E-02    0.430E-02
DAV:   4    -0.293027262690E+04    0.11876E-04   -0.31841E-04  5536   0.665E-03    0.325E-02
DAV:   5    -0.293027261391E+04    0.12985E-04   -0.10402E-04  5952   0.695E-03    0.785E-03
DAV:   6    -0.293027261402E+04   -0.10792E-06   -0.97162E-06  4928   0.327E-03
 485 F= -.29663792E+04 E0= -.29663792E+04  d E =-.481023E-03  mag=    -0.0000
       N       E                     dE             d eps       ncg     rms          rms(c)
DAV:   1    -0.293027258449E+04    0.29419E-04   -0.57384E-03  5760   0.689E-02    0.225E-02
DAV:   2    -0.293027259697E+04   -0.12475E-04   -0.14724E-04  6784   0.103E-02    0.948E-03
DAV:   3    -0.293027259595E+04    0.10199E-05   -0.26735E-06  4704   0.195E-03    0.613E-03
DAV:   4    -0.293027259664E+04   -0.69098E-06   -0.10174E-05  4800   0.219E-03    0.868E-03
DAV:   5    -0.293027259584E+04    0.79814E-06   -0.84304E-06  4704   0.157E-03
 486 F= -.29663792E+04 E0= -.29663792E+04  d E =-.499955E-03  mag=    -0.0000
       N       E                     dE             d eps       ncg     rms          rms(c)
DAV:   1    -0.293027271729E+04   -0.12065E-03   -0.11149E-01  5568   0.305E-01    0.950E-02
DAV:   2    -0.293027294617E+04   -0.22888E-03   -0.27367E-03  6624   0.443E-02    0.446E-02
DAV:   3    -0.293027293654E+04    0.96301E-05   -0.24584E-04  6592   0.936E-03    0.402E-02
DAV:   4    -0.293027292679E+04    0.97444E-05   -0.28193E-04  5408   0.627E-03    0.311E-02
DAV:   5    -0.293027291427E+04    0.12528E-04   -0.95302E-05  5728   0.672E-03    0.734E-03
DAV:   6    -0.293027291427E+04   -0.73342E-08   -0.89230E-06  4928   0.312E-03
 487 F= -.29663797E+04 E0= -.29663797E+04  d E =-.462393E-03  mag=    -0.0000
       N       E                     dE             d eps       ncg     rms          rms(c)
DAV:   1    -0.293027288825E+04    0.26012E-04   -0.68142E-03  5696   0.753E-02    0.246E-02
DAV:   2    -0.293027290255E+04   -0.14295E-04   -0.17035E-04  6848   0.111E-02    0.102E-02
DAV:   3    -0.293027290130E+04    0.12536E-05   -0.32449E-06  4768   0.207E-03    0.664E-03
DAV:   4    -0.293027290204E+04   -0.74238E-06   -0.12584E-05  4736   0.224E-03    0.968E-03
DAV:   5    -0.293027290095E+04    0.10862E-05   -0.10279E-05  4640   0.175E-03
 488 F= -.29663797E+04 E0= -.29663797E+04  d E =-.484613E-03  mag=    -0.0000
       N       E                     dE             d eps       ncg     rms          rms(c)
DAV:   1    -0.293027301957E+04   -0.11753E-03   -0.10561E-01  5568   0.295E-01    0.881E-02
DAV:   2    -0.293027323307E+04   -0.21350E-03   -0.25363E-03  6624   0.425E-02    0.419E-02
DAV:   3    -0.293027322432E+04    0.87498E-05   -0.19251E-04  6560   0.856E-03    0.366E-02
DAV:   4    -0.293027321796E+04    0.63577E-05   -0.22793E-04  5312   0.567E-03    0.297E-02
DAV:   5    -0.293027320727E+04    0.10695E-04   -0.88574E-05  5728   0.629E-03    0.740E-03
DAV:   6    -0.293027320725E+04    0.19092E-07   -0.80334E-06  4960   0.282E-03
 489 F= -.29663802E+04 E0= -.29663802E+04  d E =-.440184E-03  mag=    -0.0000
