       N       E                     dE             d eps       ncg     rms          rms(c)
DAV:   1     0.191562987878E+05    0.19156E+05   -0.77547E+05  5952   0.104E+03
DAV:   2     0.302943933317E+03   -0.18853E+05   -0.18068E+05  8064   0.275E+02
DAV:   3    -0.302126952035E+04   -0.33242E+04   -0.33057E+04  6912   0.123E+02
DAV:   4    -0.311105186583E+04   -0.89782E+02   -0.89394E+02  7296   0.234E+01
DAV:   5    -0.311289926723E+04   -0.18474E+01   -0.18443E+01  7488   0.311E+00    0.193E+02
DAV:   6    -0.151092737523E+04    0.16020E+04   -0.30707E+03  6720   0.438E+01    0.894E+01
DAV:   7    -0.165435033842E+04   -0.14342E+03   -0.27961E+02  7008   0.123E+01    0.571E+01
DAV:   8    -0.167592083518E+04   -0.21570E+02   -0.51679E+01  7200   0.545E+00    0.441E+01
DAV:   9    -0.181873064983E+04   -0.14281E+03   -0.43390E+01  7488   0.507E+00    0.365E+01
DAV:  10    -0.199906002094E+04   -0.18033E+03   -0.64052E+01  7296   0.542E+00    0.321E+01
DAV:  11    -0.219111848408E+04   -0.19206E+03   -0.77152E+01  7008   0.596E+00    0.273E+01
DAV:  12    -0.244365895342E+04   -0.25254E+03   -0.11559E+02  7008   0.760E+00    0.221E+01
DAV:  13    -0.269456812051E+04   -0.25091E+03   -0.16335E+02  6720   0.833E+00    0.161E+01
DAV:  14    -0.286167246448E+04   -0.16710E+03   -0.14813E+02  6912   0.711E+00    0.122E+01
DAV:  15    -0.289600084108E+04   -0.34328E+02   -0.20766E+01  7104   0.289E+00    0.954E+00
DAV:  16    -0.291344942789E+04   -0.17449E+02   -0.48797E+00  6816   0.156E+00    0.788E+00
DAV:  17    -0.292668389081E+04   -0.13234E+02   -0.31970E+00  6816   0.129E+00    0.632E+00
DAV:  18    -0.293406962999E+04   -0.73857E+01   -0.17608E+00  6912   0.963E-01    0.512E+00
DAV:  19    -0.293902733540E+04   -0.49577E+01   -0.12516E+00  6624   0.765E-01    0.384E+00
DAV:  20    -0.294412797087E+04   -0.51006E+01   -0.14004E+00  6912   0.689E-01    0.242E+00
DAV:  21    -0.294568218107E+04   -0.15542E+01   -0.43776E-01  6816   0.442E-01    0.148E+00
DAV:  22    -0.294624077351E+04   -0.55859E+00   -0.98821E-02  6912   0.280E-01    0.942E-01
DAV:  23    -0.294798830911E+04   -0.17475E+01   -0.48224E-02  6624   0.237E-01    0.588E-01
DAV:  24    -0.294990779343E+04   -0.19195E+01   -0.37862E-02  6912   0.187E-01    0.334E-01
DAV:  25    -0.295090841518E+04   -0.10006E+01   -0.16353E-02  7008   0.116E-01    0.217E-01
DAV:  26    -0.295139380936E+04   -0.48539E+00   -0.75089E-03  7008   0.852E-02    0.110E-01
DAV:  27    -0.295157643513E+04   -0.18263E+00   -0.24762E-03  7296   0.518E-02    0.682E-02
DAV:  28    -0.295160522335E+04   -0.28788E-01   -0.47099E-04  6816   0.235E-02    0.493E-02
DAV:  29    -0.295162031882E+04   -0.15095E-01   -0.17280E-04  7008   0.131E-02    0.255E-02
DAV:  30    -0.295163002294E+04   -0.97041E-02   -0.17129E-04  6624   0.134E-02    0.151E-02
DAV:  31    -0.295163168882E+04   -0.16659E-02   -0.35238E-05  6624   0.629E-03    0.128E-02
DAV:  32    -0.295163370186E+04   -0.20130E-02   -0.12906E-05  5664   0.363E-03    0.842E-03
DAV:  33    -0.295163590361E+04   -0.22018E-02   -0.24679E-05  6240   0.417E-03    0.655E-03
DAV:  34    -0.295163677903E+04   -0.87542E-03   -0.44385E-06  5472   0.266E-03    0.474E-03
DAV:  35    -0.295163743640E+04   -0.65737E-03   -0.32497E-06  5376   0.246E-03    0.351E-03
DAV:  36    -0.295163771043E+04   -0.27402E-03    0.40927E-07  5184   0.141E-03    0.331E-03
DAV:  37    -0.295163785676E+04   -0.14633E-03    0.16517E-06  5184   0.978E-04    0.279E-03
DAV:  38    -0.295163792410E+04   -0.67342E-04    0.21110E-06  4896   0.819E-04    0.244E-03
DAV:  39    -0.295163797356E+04   -0.49462E-04    0.22439E-06  5184   0.737E-04    0.236E-03
DAV:  40    -0.295163798842E+04   -0.14856E-04    0.25681E-06  5088   0.426E-04    0.234E-03
DAV:  41    -0.295163799361E+04   -0.51908E-05    0.27127E-06  5280   0.246E-04
   1 F= -.29885648E+04 E0= -.29885648E+04  d E =-.298856E+04  mag=    -0.0000
       N       E                     dE             d eps       ncg     rms          rms(c)
DAV:   1    -0.295163777297E+04    0.21544E-03   -0.79179E-03  5952   0.236E-02    0.725E-02
DAV:   2    -0.295163777100E+04    0.19782E-05   -0.71424E-05  6336   0.275E-03
   2 F= -.29885646E+04 E0= -.29885646E+04  d E =0.228899E-03  mag=    -0.0000
       N       E                     dE             d eps       ncg     rms          rms(c)
DAV:   1    -0.295163795917E+04   -0.18619E-03   -0.15554E-02  5568   0.331E-02    0.562E-02
DAV:   2    -0.295163796849E+04   -0.93189E-05   -0.11831E-04  6144   0.315E-03    0.214E-02
DAV:   3    -0.295163796916E+04   -0.67346E-06   -0.20234E-05  6048   0.178E-03
   3 F= -.29885648E+04 E0= -.29885648E+04  d E =-.159145E-03  mag=    -0.0000
       N       E                     dE             d eps       ncg     rms          rms(c)
DAV:   1    -0.295163793787E+04    0.30612E-04   -0.15875E-02  5568   0.335E-02    0.128E-01
DAV:   2    -0.295163793435E+04    0.35212E-05   -0.28317E-04  6144   0.529E-03    0.343E-02
DAV:   3    -0.295163793744E+04   -0.30839E-05   -0.18476E-04  6528   0.509E-03    0.311E-02
DAV:   4    -0.295163792489E+04    0.12543E-04   -0.10527E-04  6336   0.380E-03    0.167E-02
DAV:   5    -0.295163792409E+04    0.80036E-06   -0.46660E-06  5376   0.102E-03
   4 F= -.29885647E+04 E0= -.29885647E+04  d E =0.705472E-04  mag=    -0.0000
       N       E                     dE             d eps       ncg     rms          rms(c)
DAV:   1    -0.295163793031E+04   -0.54137E-05   -0.15544E-02  5760   0.411E-02    0.920E-02
DAV:   2    -0.295163792647E+04    0.38352E-05   -0.11484E-04  6336   0.371E-03    0.253E-02
DAV:   3    -0.295163792542E+04    0.10555E-05   -0.14591E-05  5664   0.160E-03
   5 F= -.29885648E+04 E0= -.29885648E+04  d E =-.130983E-03  mag=    -0.0000
       N       E                     dE             d eps       ncg     rms          rms(c)
DAV:   1    -0.295163800041E+04   -0.73935E-04   -0.15288E-02  5760   0.424E-02    0.621E-02
DAV:   2    -0.295163800269E+04   -0.22831E-05   -0.11935E-04  6144   0.441E-03    0.252E-02
DAV:   3    -0.295163800511E+04   -0.24216E-05   -0.98685E-05  6144   0.374E-03
   6 F= -.29885648E+04 E0= -.29885648E+04  d E =-.601246E-05  mag=    -0.0000
       N       E                     dE             d eps       ncg     rms          rms(c)
DAV:   1    -0.295163772852E+04    0.27417E-03   -0.15639E-02  5760   0.425E-02    0.885E-02
DAV:   2    -0.295163772393E+04    0.45958E-05   -0.11786E-04  6720   0.424E-03    0.268E-02
DAV:   3    -0.295163772515E+04   -0.12258E-05   -0.60980E-05  6144   0.314E-03
   7 F= -.29885645E+04 E0= -.29885645E+04  d E =0.302557E-03  mag=    -0.0000
       N       E                     dE             d eps       ncg     rms          rms(c)
DAV:   1    -0.295163802429E+04   -0.30036E-03   -0.16210E-02  6144   0.545E-02    0.109E-01
DAV:   2    -0.295163801239E+04    0.11896E-04   -0.19543E-04  6720   0.605E-03    0.300E-02
DAV:   3    -0.295163801427E+04   -0.18816E-05   -0.12279E-04  6336   0.431E-03    0.264E-02
DAV:   4    -0.295163800678E+04    0.74941E-05   -0.73770E-05  6144   0.325E-03
   8 F= -.29885648E+04 E0= -.29885648E+04  d E =-.242939E-03  mag=    -0.0000
       N       E                     dE             d eps       ncg     rms          rms(c)
DAV:   1    -0.295163790485E+04    0.10942E-03   -0.15652E-02  6144   0.532E-02    0.468E-02
DAV:   2    -0.295163790706E+04   -0.22125E-05   -0.58655E-05  6144   0.349E-03
   9 F= -.29885648E+04 E0= -.29885648E+04  d E =-.266780E-04  mag=    -0.0000
       N       E                     dE             d eps       ncg     rms          rms(c)
DAV:   1    -0.295163786116E+04    0.43686E-04   -0.16354E-02  6144   0.551E-02    0.110E-01
DAV:   2    -0.295163784238E+04    0.18785E-04   -0.14543E-04  6720   0.592E-03    0.364E-02
DAV:   3    -0.295163783849E+04    0.38921E-05   -0.20356E-05  6144   0.222E-03
  10 F= -.29885647E+04 E0= -.29885647E+04  d E =0.151465E-03  mag=    -0.0000
       N       E                     dE             d eps       ncg     rms          rms(c)
DAV:   1    -0.295163788574E+04   -0.43357E-04   -0.16156E-02  6144   0.557E-02    0.113E-01
DAV:   2    -0.295163787643E+04    0.93024E-05   -0.20249E-04  6528   0.619E-03    0.266E-02
DAV:   3    -0.295163787291E+04    0.35256E-05   -0.37431E-05  6144   0.277E-03
  11 F= -.29885647E+04 E0= -.29885647E+04  d E =-.675464E-04  mag=    -0.0000
       N       E                     dE             d eps       ncg     rms          rms(c)
DAV:   1    -0.295163772508E+04    0.15135E-03   -0.16821E-02  5568   0.473E-02    0.152E-01
DAV:   2    -0.295163770708E+04    0.17998E-04   -0.29985E-04  6144   0.636E-03    0.321E-02
DAV:   3    -0.295163770374E+04    0.33468E-05   -0.68483E-05  5952   0.329E-03
  12 F= -.29885646E+04 E0= -.29885646E+04  d E =0.122647E-03  mag=    -0.0000
       N       E                     dE             d eps       ncg     rms          rms(c)
DAV:   1    -0.295163803535E+04   -0.32826E-03   -0.15977E-02  5568   0.457E-02    0.925E-02
DAV:   2    -0.295163803413E+04    0.12124E-05   -0.18724E-04  6336   0.507E-03    0.267E-02
DAV:   3    -0.295163803393E+04    0.20204E-06   -0.84479E-05  6144   0.341E-03
  13 F= -.29885648E+04 E0= -.29885648E+04  d E =-.221218E-03  mag=    -0.0000
       N       E                     dE             d eps       ncg     rms          rms(c)
DAV:   1    -0.295163775202E+04    0.28211E-03   -0.81175E-02  5760   0.103E-01    0.101E-01
DAV:   2    -0.295163775866E+04   -0.66390E-05   -0.56962E-04  6144   0.100E-02    0.579E-02
DAV:   3    -0.295163775147E+04    0.71864E-05   -0.35460E-04  6336   0.734E-03    0.472E-02
DAV:   4    -0.295163773091E+04    0.20566E-04   -0.19157E-04  6336   0.513E-03    0.222E-02
DAV:   5    -0.295163772639E+04    0.45178E-05   -0.27552E-05  5952   0.232E-03
  14 F= -.29885645E+04 E0= -.29885645E+04  d E =0.291268E-03  mag=    -0.0000
       N       E                     dE             d eps       ncg     rms          rms(c)
DAV:   1    -0.295163792737E+04   -0.19647E-03   -0.14286E-01  5760   0.134E-01    0.117E-01
DAV:   2    -0.295163791515E+04    0.12224E-04   -0.67967E-04  6144   0.117E-02    0.727E-02
DAV:   3    -0.295163790304E+04    0.12106E-04   -0.31084E-04  6336   0.680E-03    0.475E-02
DAV:   4    -0.295163789187E+04    0.11179E-04   -0.34029E-04  6336   0.677E-03    0.366E-02
DAV:   5    -0.295163787507E+04    0.16799E-04   -0.93655E-05  5952   0.376E-03    0.957E-03
DAV:   6    -0.295163787511E+04   -0.40338E-07    0.78301E-07  5376   0.752E-04
  15 F= -.29885645E+04 E0= -.29885645E+04  d E =-.466222E-05  mag=    -0.0000
       N       E                     dE             d eps       ncg     rms          rms(c)
DAV:   1    -0.295163799200E+04   -0.11693E-03   -0.14496E-01  5760   0.134E-01    0.118E-01
DAV:   2    -0.295163798487E+04    0.71229E-05   -0.76824E-04  6336   0.123E-02    0.739E-02
DAV:   3    -0.295163797492E+04    0.99536E-05   -0.49928E-04  6336   0.855E-03    0.565E-02
DAV:   4    -0.295163794624E+04    0.28674E-04   -0.32577E-04  6144   0.665E-03    0.279E-02
DAV:   5    -0.295163793929E+04    0.69519E-05   -0.49793E-05  5952   0.306E-03
  16 F= -.29885645E+04 E0= -.29885645E+04  d E =0.160651E-05  mag=    -0.0000
       N       E                     dE             d eps       ncg     rms          rms(c)
DAV:   1    -0.295163765334E+04    0.29291E-03   -0.14391E-01  6144   0.138E-01    0.126E-01
DAV:   2    -0.295163763014E+04    0.23204E-04   -0.75056E-04  6144   0.134E-02    0.712E-02
DAV:   3    -0.295163761154E+04    0.18598E-04   -0.94901E-05  6144   0.480E-03    0.428E-02
DAV:   4    -0.295163761524E+04   -0.37074E-05   -0.19365E-04  5952   0.585E-03    0.376E-02
DAV:   5    -0.295163759771E+04    0.17532E-04   -0.11809E-04  6144   0.455E-03    0.116E-02
DAV:   6    -0.295163759739E+04    0.32468E-06   -0.21279E-06  5568   0.127E-03
  17 F= -.29885645E+04 E0= -.29885645E+04  d E =0.424505E-04  mag=    -0.0000
       N       E                     dE             d eps       ncg     rms          rms(c)
DAV:   1    -0.295163772258E+04   -0.12487E-03   -0.14361E-01  6144   0.137E-01    0.120E-01
DAV:   2    -0.295163769062E+04    0.31955E-04   -0.70415E-04  6336   0.127E-02    0.702E-02
DAV:   3    -0.295163767446E+04    0.16165E-04   -0.30420E-04  6336   0.725E-03    0.504E-02
DAV:   4    -0.295163765871E+04    0.15745E-04   -0.30049E-04  5952   0.653E-03    0.332E-02
DAV:   5    -0.295163764396E+04    0.14751E-04   -0.82070E-05  5952   0.400E-03    0.923E-03
DAV:   6    -0.295163764385E+04    0.11455E-06   -0.53889E-07  5568   0.114E-03
  18 F= -.29885645E+04 E0= -.29885645E+04  d E =-.315193E-04  mag=    -0.0000
       N       E                     dE             d eps       ncg     rms          rms(c)
DAV:   1    -0.295163699441E+04    0.64956E-03   -0.14501E-01  6144   0.136E-01    0.113E-01
DAV:   2    -0.295163698537E+04    0.90367E-05   -0.80282E-04  6528   0.137E-02    0.715E-02
DAV:   3    -0.295163697201E+04    0.13365E-04   -0.51503E-04  6528   0.902E-03    0.538E-02
DAV:   4    -0.295163694275E+04    0.29257E-04   -0.29541E-04  6336   0.651E-03    0.259E-02
DAV:   5    -0.295163693702E+04    0.57272E-05   -0.42467E-05  5952   0.328E-03
  19 F= -.29885643E+04 E0= -.29885643E+04  d E =0.202410E-03  mag=    -0.0000
       N       E                     dE             d eps       ncg     rms          rms(c)
DAV:   1    -0.295163765072E+04   -0.70797E-03   -0.14502E-01  6144   0.139E-01    0.118E-01
DAV:   2    -0.295163763681E+04    0.13905E-04   -0.67217E-04  6336   0.133E-02    0.625E-02
DAV:   3    -0.295163761535E+04    0.21457E-04   -0.14136E-04  6912   0.529E-03    0.381E-02
DAV:   4    -0.295163761195E+04    0.34024E-05   -0.21075E-04  6144   0.577E-03    0.353E-02
DAV:   5    -0.295163759676E+04    0.15188E-04   -0.84912E-05  6144   0.382E-03    0.821E-03
DAV:   6    -0.295163759664E+04    0.12561E-06   -0.16600E-07  5184   0.107E-03
  20 F= -.29885645E+04 E0= -.29885645E+04  d E =-.203659E-03  mag=    -0.0000
       N       E                     dE             d eps       ncg     rms          rms(c)
DAV:   1    -0.295163782232E+04   -0.22556E-03   -0.14837E-01  5568   0.131E-01    0.102E-01
DAV:   2    -0.295163777552E+04    0.46808E-04   -0.62260E-04  5952   0.114E-02    0.539E-02
DAV:   3    -0.295163774797E+04    0.27549E-04   -0.13972E-04  6336   0.519E-03    0.342E-02
DAV:   4    -0.295163773891E+04    0.90558E-05   -0.17129E-04  6336   0.512E-03    0.277E-02
DAV:   5    -0.295163772740E+04    0.11512E-04   -0.62208E-05  6144   0.341E-03    0.795E-03
DAV:   6    -0.295163772739E+04    0.69267E-08    0.34851E-07  5376   0.966E-04
  21 F= -.29885645E+04 E0= -.29885645E+04  d E =-.666590E-05  mag=    -0.0000
       N       E                     dE             d eps       ncg     rms          rms(c)
DAV:   1    -0.295163792930E+04   -0.20190E-03   -0.14195E-01  5568   0.132E-01    0.116E-01
DAV:   2    -0.295163788842E+04    0.40876E-04   -0.66522E-04  5760   0.118E-02    0.656E-02
DAV:   3    -0.295163785958E+04    0.28838E-04   -0.59813E-05  6144   0.378E-03    0.338E-02
DAV:   4    -0.295163785132E+04    0.82604E-05   -0.66806E-05  5952   0.362E-03
  22 F= -.29885645E+04 E0= -.29885645E+04  d E =0.541268E-04  mag=    -0.0000
       N       E                     dE             d eps       ncg     rms          rms(c)
DAV:   1    -0.295163803279E+04   -0.17321E-03   -0.95895E-02  5568   0.110E-01    0.125E-01
DAV:   2    -0.295163806274E+04   -0.29942E-04   -0.10113E-03  5952   0.156E-02    0.918E-02
DAV:   3    -0.295163804563E+04    0.17104E-04   -0.17980E-04  6336   0.570E-03    0.471E-02
DAV:   4    -0.295163806311E+04   -0.17480E-04   -0.33264E-04  6528   0.695E-03    0.579E-02
DAV:   5    -0.295163802976E+04    0.33355E-04   -0.19871E-04  6144   0.528E-03    0.112E-02
DAV:   6    -0.295163802887E+04    0.88732E-06   -0.32178E-06  5760   0.127E-03
  23 F= -.29885646E+04 E0= -.29885646E+04  d E =-.101775E-03  mag=    -0.0000
       N       E                     dE             d eps       ncg     rms          rms(c)
DAV:   1    -0.295163788720E+04    0.14256E-03   -0.53079E-02  5664   0.715E-02    0.983E-02
DAV:   2    -0.295163794185E+04   -0.54654E-04   -0.11134E-03  6144   0.181E-02    0.111E-01
DAV:   3    -0.295163791436E+04    0.27498E-04   -0.12956E-04  6144   0.463E-03    0.695E-02
DAV:   4    -0.295163795577E+04   -0.41415E-04   -0.21694E-04  6144   0.562E-03    0.708E-02
DAV:   5    -0.295163791384E+04    0.41934E-04   -0.20611E-04  6528   0.534E-03    0.178E-02
DAV:   6    -0.295163791263E+04    0.12078E-05   -0.34313E-06  5760   0.134E-03
  24 F= -.29885647E+04 E0= -.29885647E+04  d E =-.146651E-03  mag=    -0.0000
       N       E                     dE             d eps       ncg     rms          rms(c)
DAV:   1    -0.295163818806E+04   -0.27422E-03   -0.51451E-02  5568   0.718E-02    0.466E-02
DAV:   2    -0.295163821826E+04   -0.30199E-04   -0.57899E-04  6144   0.134E-02    0.620E-02
DAV:   3    -0.295163820712E+04    0.11140E-04   -0.33182E-05  5952   0.245E-03    0.420E-02
DAV:   4    -0.295163820854E+04   -0.14278E-05   -0.13742E-05  5952   0.167E-03
  25 F= -.29885648E+04 E0= -.29885648E+04  d E =-.105584E-03  mag=    -0.0000
       N       E                     dE             d eps       ncg     rms          rms(c)
DAV:   1    -0.295163798469E+04    0.22243E-03   -0.50606E-02  5760   0.797E-02    0.511E-02
DAV:   2    -0.295163803243E+04   -0.47746E-04   -0.71600E-04  6336   0.156E-02    0.524E-02
DAV:   3    -0.295163802470E+04    0.77367E-05   -0.48391E-05  6240   0.302E-03
  26 F= -.29885648E+04 E0= -.29885648E+04  d E =0.355270E-04  mag=    -0.0000
       N       E                     dE             d eps       ncg     rms          rms(c)
DAV:   1    -0.295163799781E+04    0.34627E-04   -0.50312E-02  5952   0.807E-02    0.640E-02
DAV:   2    -0.295163805021E+04   -0.52410E-04   -0.92908E-04  6528   0.171E-02    0.696E-02
DAV:   3    -0.295163801789E+04    0.32330E-04   -0.20473E-04  6048   0.561E-03    0.355E-02
DAV:   4    -0.295163801993E+04   -0.20431E-05   -0.46190E-05  5952   0.276E-03
  27 F= -.29885647E+04 E0= -.29885647E+04  d E =0.859751E-04  mag=    -0.0000
       N       E                     dE             d eps       ncg     rms          rms(c)
DAV:   1    -0.295163801073E+04    0.71524E-05   -0.53247E-02  5760   0.806E-02    0.109E-01
DAV:   2    -0.295163806150E+04   -0.50765E-04   -0.12437E-03  6528   0.220E-02    0.123E-01
DAV:   3    -0.295163802899E+04    0.32506E-04   -0.14896E-04  6144   0.535E-03    0.780E-02
DAV:   4    -0.295163807882E+04   -0.49832E-04   -0.27066E-04  6144   0.623E-03    0.780E-02
DAV:   5    -0.295163802857E+04    0.50249E-04   -0.27028E-04  6336   0.602E-03    0.244E-02
DAV:   6    -0.295163802654E+04    0.20308E-05   -0.73256E-06  5952   0.173E-03
  28 F= -.29885647E+04 E0= -.29885647E+04  d E =0.264797E-04  mag=    -0.0000
       N       E                     dE             d eps       ncg     rms          rms(c)
DAV:   1    -0.295163764596E+04    0.38262E-03   -0.51737E-02  5760   0.840E-02    0.805E-02
DAV:   2    -0.295163770352E+04   -0.57560E-04   -0.88446E-04  6336   0.181E-02    0.639E-02
DAV:   3    -0.295163769530E+04    0.82163E-05   -0.12262E-04  6336   0.476E-03    0.346E-02
DAV:   4    -0.295163770319E+04   -0.78899E-05   -0.15460E-04  6144   0.477E-03    0.408E-02
DAV:   5    -0.295163768958E+04    0.13608E-04   -0.86352E-05  6144   0.360E-03    0.635E-03
DAV:   6    -0.295163768929E+04    0.28912E-06    0.33675E-07  5184   0.852E-04
  29 F= -.29885647E+04 E0= -.29885647E+04  d E =0.104801E-04  mag=    -0.0000
       N       E                     dE             d eps       ncg     rms          rms(c)
DAV:   1    -0.295163785914E+04   -0.16956E-03   -0.51206E-02  5568   0.721E-02    0.662E-02
DAV:   2    -0.295163790119E+04   -0.42052E-04   -0.57376E-04  6144   0.137E-02    0.702E-02
DAV:   3    -0.295163789558E+04    0.56086E-05   -0.25605E-05  5952   0.219E-03
  30 F= -.29885647E+04 E0= -.29885647E+04  d E =-.560237E-04  mag=    -0.0000
       N       E                     dE             d eps       ncg     rms          rms(c)
DAV:   1    -0.295163794384E+04   -0.42646E-04   -0.52292E-02  5568   0.749E-02    0.891E-02
DAV:   2    -0.295163803504E+04   -0.91207E-04   -0.16515E-03  5952   0.204E-02    0.111E-01
DAV:   3    -0.295163796819E+04    0.66848E-04   -0.29633E-04  5952   0.663E-03    0.637E-02
DAV:   4    -0.295163798446E+04   -0.16269E-04   -0.85008E-05  5952   0.345E-03    0.467E-02
DAV:   5    -0.295163796420E+04    0.20266E-04   -0.10144E-04  6144   0.382E-03    0.111E-02
DAV:   6    -0.295163796319E+04    0.10039E-05   -0.74174E-07  5184   0.105E-03
  31 F= -.29885646E+04 E0= -.29885646E+04  d E =0.106425E-03  mag=    -0.0000
       N       E                     dE             d eps       ncg     rms          rms(c)
DAV:   1    -0.295163785739E+04    0.10681E-03   -0.51331E-02  5568   0.735E-02    0.103E-01
DAV:   2    -0.295163791833E+04   -0.60943E-04   -0.87978E-04  5952   0.155E-02    0.714E-02
DAV:   3    -0.295163791403E+04    0.43005E-05   -0.48092E-05  6144   0.333E-03
  32 F= -.29885647E+04 E0= -.29885647E+04  d E =-.475129E-04  mag=    -0.0000
       N       E                     dE             d eps       ncg     rms          rms(c)
DAV:   1    -0.295163808336E+04   -0.16502E-03   -0.52400E-02  5376   0.554E-02    0.554E-02
DAV:   2    -0.295163812848E+04   -0.45128E-04   -0.84713E-04  5760   0.120E-02    0.428E-02
DAV:   3    -0.295163811622E+04    0.12260E-04   -0.13807E-04  6144   0.461E-03    0.347E-02
DAV:   4    -0.295163811215E+04    0.40787E-05   -0.18661E-05  6144   0.181E-03
  33 F= -.29885647E+04 E0= -.29885647E+04  d E =-.529625E-04  mag=    -0.0000
       N       E                     dE             d eps       ncg     rms          rms(c)
DAV:   1    -0.295163805143E+04    0.64793E-04   -0.49965E-02  5376   0.567E-02    0.122E-01
DAV:   2    -0.295163807764E+04   -0.26203E-04   -0.75057E-04  5952   0.101E-02    0.372E-02
DAV:   3    -0.295163807612E+04    0.15186E-05   -0.10962E-04  6144   0.410E-03    0.258E-02
DAV:   4    -0.295163807331E+04    0.28061E-05   -0.93048E-05  6144   0.360E-03
  34 F= -.29885646E+04 E0= -.29885646E+04  d E =0.719106E-04  mag=    -0.0000
       N       E                     dE             d eps       ncg     rms          rms(c)
DAV:   1    -0.295163765979E+04    0.41633E-03   -0.51803E-02  5760   0.703E-02    0.964E-02
DAV:   2    -0.295163768150E+04   -0.21713E-04   -0.12871E-03  6336   0.189E-02    0.979E-02
DAV:   3    -0.295163765787E+04    0.23637E-04   -0.15812E-04  6336   0.565E-03    0.564E-02
DAV:   4    -0.295163768047E+04   -0.22604E-04   -0.18616E-04  5952   0.521E-03    0.575E-02
DAV:   5    -0.295163765535E+04    0.25121E-04   -0.17312E-04  6144   0.501E-03    0.183E-02
DAV:   6    -0.295163765382E+04    0.15277E-05   -0.55490E-06  5376   0.153E-03
  35 F= -.29885647E+04 E0= -.29885647E+04  d E =-.658088E-04  mag=    -0.0000
       N       E                     dE             d eps       ncg     rms          rms(c)
DAV:   1    -0.295163803537E+04   -0.38002E-03   -0.52463E-02  5952   0.705E-02    0.670E-02
DAV:   2    -0.295163805471E+04   -0.19337E-04   -0.95871E-04  6528   0.166E-02    0.881E-02
DAV:   3    -0.295163802749E+04    0.27216E-04   -0.94379E-05  6336   0.409E-03    0.587E-02
DAV:   4    -0.295163803965E+04   -0.12159E-04   -0.61852E-05  5760   0.361E-03    0.486E-02
DAV:   5    -0.295163801948E+04    0.20175E-04   -0.97252E-05  6336   0.419E-03    0.138E-02
DAV:   6    -0.295163801844E+04    0.10406E-05   -0.95555E-07  4992   0.119E-03
  36 F= -.29885648E+04 E0= -.29885648E+04  d E =-.677975E-04  mag=    -0.0000
       N       E                     dE             d eps       ncg     rms          rms(c)
DAV:   1    -0.295163799163E+04    0.27846E-04   -0.49897E-02  5760   0.666E-02    0.801E-02
DAV:   2    -0.295163801139E+04   -0.19754E-04   -0.40749E-04  6336   0.106E-02    0.300E-02
DAV:   3    -0.295163800953E+04    0.18569E-05   -0.18043E-05  6240   0.227E-03
  37 F= -.29885645E+04 E0= -.29885645E+04  d E =0.267428E-03  mag=    -0.0000
       N       E                     dE             d eps       ncg     rms          rms(c)
DAV:   1    -0.295163783268E+04    0.17871E-03   -0.49516E-02  5952   0.792E-02    0.124E-01
DAV:   2    -0.295163786218E+04   -0.29504E-04   -0.75107E-04  6336   0.154E-02    0.481E-02
DAV:   3    -0.295163785886E+04    0.33219E-05   -0.13277E-04  6336   0.476E-03    0.269E-02
DAV:   4    -0.295163785904E+04   -0.18120E-06   -0.15073E-04  6528   0.469E-03    0.289E-02
DAV:   5    -0.295163785173E+04    0.73059E-05   -0.43081E-05  5952   0.258E-03
  38 F= -.29885648E+04 E0= -.29885648E+04  d E =-.277910E-03  mag=    -0.0000
       N       E                     dE             d eps       ncg     rms          rms(c)
DAV:   1    -0.295163770605E+04    0.15299E-03   -0.52287E-02  5952   0.819E-02    0.711E-02
DAV:   2    -0.295163774957E+04   -0.43527E-04   -0.89896E-04  6336   0.180E-02    0.944E-02
DAV:   3    -0.295163772894E+04    0.20636E-04   -0.53596E-05  5760   0.312E-03    0.704E-02
DAV:   4    -0.295163773552E+04   -0.65843E-05   -0.26006E-05  5760   0.245E-03
  39 F= -.29885647E+04 E0= -.29885647E+04  d E =0.104182E-03  mag=    -0.0000
       N       E                     dE             d eps       ncg     rms          rms(c)
DAV:   1    -0.295163786347E+04   -0.13453E-03   -0.52052E-02  5952   0.801E-02    0.567E-02
DAV:   2    -0.295163790013E+04   -0.36661E-04   -0.72451E-04  6528   0.165E-02    0.752E-02
DAV:   3    -0.295163788351E+04    0.16622E-04   -0.48535E-05  5760   0.304E-03    0.518E-02
DAV:   4    -0.295163788409E+04   -0.58668E-06   -0.15056E-05  5760   0.191E-03
  40 F= -.29885646E+04 E0= -.29885646E+04  d E =0.616050E-04  mag=    -0.0000
       N       E                     dE             d eps       ncg     rms          rms(c)
DAV:   1    -0.295163808041E+04   -0.19690E-03   -0.52898E-02  5952   0.785E-02    0.961E-02
DAV:   2    -0.295163812466E+04   -0.44249E-04   -0.10306E-03  6720   0.183E-02    0.981E-02
DAV:   3    -0.295163810229E+04    0.22370E-04   -0.14493E-04  6336   0.497E-03    0.550E-02
DAV:   4    -0.295163812976E+04   -0.27465E-04   -0.21829E-04  5952   0.568E-03    0.613E-02
DAV:   5    -0.295163809718E+04    0.32579E-04   -0.17063E-04  5952   0.486E-03    0.157E-02
DAV:   6    -0.295163809576E+04    0.14166E-05   -0.30982E-06  5568   0.133E-03
  41 F= -.29885647E+04 E0= -.29885647E+04  d E =-.113153E-03  mag=    -0.0000
       N       E                     dE             d eps       ncg     rms          rms(c)
DAV:   1    -0.295163769271E+04    0.40447E-03   -0.54439E-02  5664   0.590E-02    0.561E-02
DAV:   2    -0.295163771053E+04   -0.17819E-04   -0.51511E-04  6336   0.116E-02    0.580E-02
DAV:   3    -0.295163770171E+04    0.88178E-05   -0.54104E-05  6336   0.314E-03
  42 F= -.29885648E+04 E0= -.29885648E+04  d E =-.148995E-04  mag=    -0.0000
       N       E                     dE             d eps       ncg     rms          rms(c)
DAV:   1    -0.295163798116E+04   -0.27063E-03   -0.51736E-02  5952   0.672E-02    0.142E-01
DAV:   2    -0.295163801768E+04   -0.36517E-04   -0.10357E-03  6720   0.145E-02    0.595E-02
DAV:   3    -0.295163802062E+04   -0.29384E-05   -0.80201E-04  6432   0.104E-02    0.509E-02
DAV:   4    -0.295163797896E+04    0.41655E-04   -0.32534E-04  6432   0.645E-03    0.190E-02
DAV:   5    -0.295163797697E+04    0.19952E-05   -0.11534E-05  5568   0.163E-03
  43 F= -.29885646E+04 E0= -.29885646E+04  d E =0.163628E-03  mag=    -0.0000
       N       E                     dE             d eps       ncg     rms          rms(c)
DAV:   1    -0.295163775762E+04    0.22134E-03   -0.51299E-02  5664   0.667E-02    0.128E-01
DAV:   2    -0.295163779654E+04   -0.38913E-04   -0.72616E-04  6528   0.117E-02    0.345E-02
DAV:   3    -0.295163779194E+04    0.46008E-05   -0.29422E-05  6336   0.274E-03
  44 F= -.29885647E+04 E0= -.29885647E+04  d E =-.103990E-03  mag=    -0.0000
       N       E                     dE             d eps       ncg     rms          rms(c)
DAV:   1    -0.295163750038E+04    0.29616E-03   -0.49605E-02  5376   0.643E-02    0.147E-01
DAV:   2    -0.295163751677E+04   -0.16393E-04   -0.82223E-04  5952   0.124E-02    0.457E-02
DAV:   3    -0.295163751737E+04   -0.59808E-06   -0.23478E-04  6336   0.603E-03    0.338E-02
DAV:   4    -0.295163750895E+04    0.84170E-05   -0.14963E-04  6336   0.461E-03    0.238E-02
DAV:   5    -0.295163750584E+04    0.31180E-05   -0.23010E-05  5952   0.198E-03
  45 F= -.29885646E+04 E0= -.29885646E+04  d E =0.106008E-03  mag=    -0.0000
       N       E                     dE             d eps       ncg     rms          rms(c)
DAV:   1    -0.295163821797E+04   -0.70902E-03   -0.52907E-02  5376   0.663E-02    0.950E-02
DAV:   2    -0.295163823734E+04   -0.19372E-04   -0.12600E-03  5760   0.163E-02    0.101E-01
DAV:   3    -0.295163820067E+04    0.36670E-04   -0.25976E-04  6336   0.605E-03    0.525E-02
DAV:   4    -0.295163821718E+04   -0.16513E-04   -0.15902E-04  5760   0.472E-03    0.522E-02
DAV:   5    -0.295163819527E+04    0.21917E-04   -0.13341E-04  6336   0.436E-03    0.129E-02
DAV:   6    -0.295163819407E+04    0.11979E-05   -0.20166E-06  5184   0.121E-03
  46 F= -.29885647E+04 E0= -.29885647E+04  d E =-.109006E-03  mag=    -0.0000
